REMARK SMILES O=c1c(O)c(-c2ccc(O)c(O)c2)oc2cc(O)cc(O)c12
REMARK SMILES IDX 1 1 2 2 3 3 5 4 14 5 15 6 16 7 17 8 19 9 20 10 22 11 4 12
REMARK SMILES IDX 6 14 7 15 13 16 8 17 11 18 9 19 12 20 10 22 21 24 18 26
REMARK H PARENT 4 13 12 21 10 23 21 25 18 27
ROOT
ATOM      1  O   UNL     1      -1.885   3.054  -0.454  1.00  0.00    -0.285 OA
ATOM      2  C   UNL     1      -1.488   1.903  -0.286  1.00  0.00    +0.238 C 
ATOM      3  C   UNL     1      -0.040   1.594  -0.327  1.00  0.00    +0.208 C 
ATOM      4  C   UNL     1       0.351   0.320  -0.145  1.00  0.00    +0.180 C 
ATOM      5  O   UNL     1      -0.526  -0.737   0.073  1.00  0.00    -0.452 OA
ATOM      6  C   UNL     1      -1.873  -0.481   0.131  1.00  0.00    +0.146 A 
ATOM      7  C   UNL     1      -2.712  -1.571   0.371  1.00  0.00    +0.094 A 
ATOM      8  C   UNL     1      -4.088  -1.367   0.437  1.00  0.00    +0.123 A 
ATOM      9  C   UNL     1      -4.634  -0.098   0.266  1.00  0.00    +0.093 A 
ATOM     10  C   UNL     1      -3.793   0.985   0.028  1.00  0.00    +0.134 A 
ATOM     11  C   UNL     1      -2.410   0.793  -0.039  1.00  0.00    +0.111 A 
ENDROOT
BRANCH   3  12
ATOM     12  O   UNL     1       0.821   2.648  -0.570  1.00  0.00    -0.502 OA
ATOM     13  H   UNL     1       0.244   3.431  -0.696  1.00  0.00    +0.293 HD
ENDBRANCH   3  12
BRANCH   4  14
ATOM     14  C   UNL     1       1.767  -0.106  -0.181  1.00  0.00    +0.025 A 
ATOM     15  C   UNL     1       2.132  -1.248  -0.915  1.00  0.00    +0.016 A 
ATOM     16  C   UNL     1       2.761   0.578   0.536  1.00  0.00    +0.062 A 
ATOM     17  C   UNL     1       3.458  -1.690  -0.946  1.00  0.00    +0.051 A 
ATOM     18  C   UNL     1       4.084   0.137   0.502  1.00  0.00    +0.158 A 
ATOM     19  C   UNL     1       4.431  -0.994  -0.236  1.00  0.00    +0.157 A 
BRANCH  18  20
ATOM     20  O   UNL     1       5.053   0.808   1.194  1.00  0.00    -0.504 OA
ATOM     21  H   UNL     1       4.668   1.610   1.580  1.00  0.00    +0.293 HD
ENDBRANCH  18  20
BRANCH  19  22
ATOM     22  O   UNL     1       5.732  -1.410  -0.255  1.00  0.00    -0.504 OA
ATOM     23  H   UNL     1       5.808  -2.193  -0.821  1.00  0.00    +0.293 HD
ENDBRANCH  19  22
ENDBRANCH   4  14
BRANCH  10  24
ATOM     24  O   UNL     1      -4.385   2.208  -0.131  1.00  0.00    -0.507 OA
ATOM     25  H   UNL     1      -3.684   2.878  -0.294  1.00  0.00    +0.293 HD
ENDBRANCH  10  24
BRANCH   8  26
ATOM     26  O   UNL     1      -4.947  -2.400   0.669  1.00  0.00    -0.508 OA
ATOM     27  H   UNL     1      -4.441  -3.222   0.781  1.00  0.00    +0.293 HD
ENDBRANCH   8  26
TORSDOF 6
