REMARK SMILES CN(C)c1ccc2c(c1)Sc1cc(N(C)C)ccc1N2
REMARK SMILES IDX 4 1 5 2 6 3 7 4 20 5 19 6 18 7 17 8 13 9 12 10 11 11 10 12
REMARK SMILES IDX 8 13 9 14 2 16 1 17 3 18 14 19 15 20 16 21
REMARK H PARENT 20 15
ROOT
ATOM      1  C   UNL     1       3.862  -0.140  -0.298  1.00  0.00    +0.037 A 
ATOM      2  C   UNL     1       3.615  -1.499  -0.548  1.00  0.00    +0.028 A 
ATOM      3  C   UNL     1       2.316  -2.021  -0.632  1.00  0.00    +0.029 A 
ATOM      4  C   UNL     1       1.197  -1.197  -0.492  1.00  0.00    +0.053 A 
ATOM      5  N   UNL     1      -0.085  -1.769  -0.537  1.00  0.00    -0.354 N 
ATOM      6  C   UNL     1      -1.307  -1.082  -0.471  1.00  0.00    +0.053 A 
ATOM      7  C   UNL     1      -2.499  -1.800  -0.590  1.00  0.00    +0.029 A 
ATOM      8  C   UNL     1      -3.743  -1.161  -0.484  1.00  0.00    +0.028 A 
ATOM      9  C   UNL     1      -3.861   0.214  -0.231  1.00  0.00    +0.037 A 
ATOM     10  C   UNL     1      -2.648   0.915  -0.108  1.00  0.00    +0.043 A 
ATOM     11  C   UNL     1      -1.388   0.289  -0.210  1.00  0.00    +0.038 A 
ATOM     12  S   UNL     1       0.061   1.316  -0.003  1.00  0.00    -0.086 SA
ATOM     13  C   UNL     1       1.407   0.161  -0.234  1.00  0.00    +0.038 A 
ATOM     14  C   UNL     1       2.720   0.669  -0.155  1.00  0.00    +0.043 A 
ATOM     15  H   UNL     1      -0.131  -2.696  -0.940  1.00  0.00    +0.167 HD
ENDROOT
BRANCH   1  16
ATOM     16  N   UNL     1       5.162   0.377  -0.234  1.00  0.00    -0.378 N 
ATOM     17  C   UNL     1       6.274  -0.540   0.009  1.00  0.00    +0.143 C 
ATOM     18  C   UNL     1       5.362   1.748   0.232  1.00  0.00    +0.143 C 
ENDBRANCH   1  16
BRANCH   9  19
ATOM     19  N   UNL     1      -5.106   0.848  -0.145  1.00  0.00    -0.378 N 
ATOM     20  C   UNL     1      -6.294   0.036   0.118  1.00  0.00    +0.143 C 
ATOM     21  C   UNL     1      -5.172   2.232   0.323  1.00  0.00    +0.143 C 
ENDBRANCH   9  19
TORSDOF 2
