REMARK SMILES C=CCc1ccc(O)c(-c2cc(CC=C)ccc2O)c1
REMARK SMILES IDX 4 1 5 2 6 3 7 4 9 5 20 6 3 7 2 8 1 9 10 10 11 11 18 12 12 13
REMARK SMILES IDX 17 14 16 15 19 16 13 18 14 19 15 20 8 21
REMARK H PARENT 19 17 8 22
ROOT
ATOM      1  C   UNL     1      -3.092  -0.431   0.351  1.00  0.00    -0.043 A 
ATOM      2  C   UNL     1      -3.198  -0.136   1.714  1.00  0.00    +0.008 A 
ATOM      3  C   UNL     1      -2.052  -0.004   2.499  1.00  0.00    +0.047 A 
ATOM      4  C   UNL     1      -0.790  -0.163   1.921  1.00  0.00    +0.123 A 
ATOM      5  C   UNL     1      -0.641  -0.452   0.553  1.00  0.00    +0.027 A 
ATOM      6  C   UNL     1      -1.814  -0.578  -0.215  1.00  0.00    +0.016 A 
ENDROOT
BRANCH   1   7
ATOM      7  C   UNL     1      -4.329  -0.564  -0.504  1.00  0.00    +0.062 C 
BRANCH   7   8
ATOM      8  C   UNL     1      -4.867   0.771  -0.939  1.00  0.00    -0.030 C 
ATOM      9  C   UNL     1      -6.099   1.218  -0.661  1.00  0.00    +0.004 C 
ENDBRANCH   7   8
ENDBRANCH   1   7
BRANCH   5  10
ATOM     10  C   UNL     1       0.681  -0.607  -0.090  1.00  0.00    +0.027 A 
ATOM     11  C   UNL     1       1.601   0.459  -0.067  1.00  0.00    +0.016 A 
ATOM     12  C   UNL     1       1.071  -1.786  -0.748  1.00  0.00    +0.123 A 
ATOM     13  C   UNL     1       2.863   0.363  -0.678  1.00  0.00    -0.043 A 
ATOM     14  C   UNL     1       2.324  -1.902  -1.355  1.00  0.00    +0.047 A 
ATOM     15  C   UNL     1       3.217  -0.831  -1.317  1.00  0.00    +0.008 A 
BRANCH  12  16
ATOM     16  O   UNL     1       0.210  -2.853  -0.792  1.00  0.00    -0.507 OA
ATOM     17  H   UNL     1       0.680  -3.617  -1.161  1.00  0.00    +0.293 HD
ENDBRANCH  12  16
BRANCH  13  18
ATOM     18  C   UNL     1       3.835   1.517  -0.615  1.00  0.00    +0.062 C 
BRANCH  18  19
ATOM     19  C   UNL     1       4.851   1.346   0.479  1.00  0.00    -0.030 C 
ATOM     20  C   UNL     1       6.177   1.320   0.285  1.00  0.00    +0.004 C 
ENDBRANCH  18  19
ENDBRANCH  13  18
ENDBRANCH   5  10
BRANCH   4  21
ATOM     21  O   UNL     1       0.323  -0.034   2.711  1.00  0.00    -0.507 OA
ATOM     22  H   UNL     1       0.042   0.043   3.636  1.00  0.00    +0.293 HD
ENDBRANCH   4  21
TORSDOF 7
