REMARK SMILES C=CCc1ccc(O)c(-c2cc(CC=C)ccc2O)c1
REMARK SMILES IDX 4 1 5 2 6 3 7 4 9 5 20 6 3 7 2 8 1 9 10 10 11 11 18 12 12 13
REMARK SMILES IDX 17 14 16 15 19 16 13 18 14 19 15 20 8 21
REMARK H PARENT 19 17 8 22
ROOT
ATOM      1  C   UNL     1       2.876  -0.535   0.402  1.00  0.00    -0.043 A 
ATOM      2  C   UNL     1       3.664   0.593   0.647  1.00  0.00    +0.008 A 
ATOM      3  C   UNL     1       3.066   1.830   0.881  1.00  0.00    +0.047 A 
ATOM      4  C   UNL     1       1.674   1.945   0.857  1.00  0.00    +0.123 A 
ATOM      5  C   UNL     1       0.842   0.843   0.594  1.00  0.00    +0.027 A 
ATOM      6  C   UNL     1       1.477  -0.397   0.375  1.00  0.00    +0.016 A 
ENDROOT
BRANCH   1   7
ATOM      7  C   UNL     1       3.515  -1.880   0.144  1.00  0.00    +0.062 C 
BRANCH   7   8
ATOM      8  C   UNL     1       3.815  -2.214  -1.294  1.00  0.00    -0.030 C 
ATOM      9  C   UNL     1       3.589  -1.463  -2.381  1.00  0.00    +0.004 C 
ENDBRANCH   7   8
ENDBRANCH   1   7
BRANCH   5  10
ATOM     10  C   UNL     1      -0.638   0.931   0.510  1.00  0.00    +0.027 A 
ATOM     11  C   UNL     1      -1.296   0.408  -0.624  1.00  0.00    +0.016 A 
ATOM     12  C   UNL     1      -1.454   1.470   1.521  1.00  0.00    +0.123 A 
ATOM     13  C   UNL     1      -2.697   0.402  -0.743  1.00  0.00    -0.043 A 
ATOM     14  C   UNL     1      -2.846   1.450   1.432  1.00  0.00    +0.047 A 
ATOM     15  C   UNL     1      -3.467   0.916   0.306  1.00  0.00    +0.008 A 
BRANCH  12  16
ATOM     16  O   UNL     1      -0.945   2.049   2.654  1.00  0.00    -0.507 OA
ATOM     17  H   UNL     1      -0.081   2.424   2.395  1.00  0.00    +0.293 HD
ENDBRANCH  12  16
BRANCH  13  18
ATOM     18  C   UNL     1      -3.363  -0.183  -1.965  1.00  0.00    +0.062 C 
BRANCH  18  19
ATOM     19  C   UNL     1      -3.778  -1.613  -1.760  1.00  0.00    -0.030 C 
ATOM     20  C   UNL     1      -5.037  -2.058  -1.866  1.00  0.00    +0.004 C 
ENDBRANCH  18  19
ENDBRANCH  13  18
ENDBRANCH   5  10
BRANCH   4  21
ATOM     21  O   UNL     1       1.108   3.165   1.127  1.00  0.00    -0.507 OA
ATOM     22  H   UNL     1       1.790   3.851   1.025  1.00  0.00    +0.293 HD
ENDBRANCH   4  21
TORSDOF 7
