REMARK SMILES FCCC1CCN(c2ccn3c(n2)nc2ccccc23)CC1
REMARK SMILES IDX 1 1 2 2 3 3 4 4 5 5 22 6 6 7 21 8 7 9 8 10 9 11 13 12 10 13
REMARK SMILES IDX 12 14 11 15 14 16 20 17 15 18 19 19 16 20 18 21 17 22
REMARK H PARENT
ROOT
ATOM      1  F   UNL     1      -7.414  -0.937   0.734  1.00  0.00    -0.251 F 
ATOM      2  C   UNL     1      -6.237  -0.873   0.055  1.00  0.00    +0.215 C 
ENDROOT
BRANCH   2   3
ATOM      3  C   UNL     1      -5.214  -0.169   0.931  1.00  0.00    +0.038 C 
BRANCH   3   4
ATOM      4  C   UNL     1      -3.859   0.057   0.242  1.00  0.00    -0.005 C 
ATOM      5  C   UNL     1      -3.144  -1.259  -0.098  1.00  0.00    +0.025 C 
ATOM      6  C   UNL     1      -2.950   0.909   1.143  1.00  0.00    +0.025 C 
ATOM      7  C   UNL     1      -1.757  -1.009  -0.690  1.00  0.00    +0.118 C 
ATOM      8  C   UNL     1      -1.570   1.114   0.522  1.00  0.00    +0.118 C 
ATOM      9  N   UNL     1      -0.947  -0.190   0.223  1.00  0.00    -0.356 N 
ATOM     10  C   UNL     1       0.445  -0.218   0.082  1.00  0.00    +0.134 C 
ATOM     11  C   UNL     1       1.151  -1.553   0.157  1.00  0.00    +0.065 C 
ATOM     12  N   UNL     1       1.098   0.908  -0.088  1.00  0.00    -0.195 NA
ATOM     13  C   UNL     1       2.482  -1.550   0.017  1.00  0.00    +0.099 C 
ATOM     14  C   UNL     1       2.453   0.863  -0.230  1.00  0.00    +0.236 A 
ATOM     15  N   UNL     1       3.137  -0.346  -0.182  1.00  0.00    -0.284 N 
ATOM     16  N   UNL     1       3.289   1.862  -0.426  1.00  0.00    -0.211 NA
ATOM     17  C   UNL     1       4.479  -0.084  -0.353  1.00  0.00    +0.074 A 
ATOM     18  C   UNL     1       4.536   1.299  -0.502  1.00  0.00    +0.091 A 
ATOM     19  C   UNL     1       5.620  -0.898  -0.392  1.00  0.00    +0.029 A 
ATOM     20  C   UNL     1       5.779   1.919  -0.701  1.00  0.00    +0.031 A 
ATOM     21  C   UNL     1       6.850  -0.260  -0.591  1.00  0.00    +0.002 A 
ATOM     22  C   UNL     1       6.932   1.125  -0.743  1.00  0.00    +0.002 A 
ENDBRANCH   3   4
ENDBRANCH   2   3
TORSDOF 2
