REMARK SMILES FCCC1CCN(c2ccn3c(n2)nc2ccccc23)CC1
REMARK SMILES IDX 3 1 4 2 7 3 6 4 21 5 5 6 22 7 8 8 12 9 13 10 14 11 11 12
REMARK SMILES IDX 15 13 20 14 10 15 9 16 16 17 19 18 17 19 18 20 2 21 1 22
REMARK H PARENT
ROOT
ATOM      1  C1  Y9H K 401     100.438 132.991 117.759  1.00  0.00    +0.038 C 
ENDROOT
BRANCH   1   2
ATOM      2  C2  Y9H K 401     101.196 133.323 119.058  1.00  0.00    -0.005 C 
ATOM      3  N1  Y9H K 401     104.033 133.975 118.654  1.00  0.00    -0.356 N 
ATOM      4  C6  Y9H K 401     103.575 132.586 118.487  1.00  0.00    +0.118 C 
ATOM      5  C4  Y9H K 401     103.002 134.905 118.170  1.00  0.00    +0.118 C 
ATOM      6  C5  Y9H K 401     102.341 132.331 119.364  1.00  0.00    +0.025 C 
ATOM      7  C3  Y9H K 401     101.743 134.767 119.043  1.00  0.00    +0.025 C 
BRANCH   3   8
ATOM      8  C7  Y9H K 401     105.064 134.311 119.517  1.00  0.00    +0.134 A 
ATOM      9  C8  Y9H K 401     106.614 133.593 121.084  1.00  0.00    +0.236 A 
ATOM     10  N2  Y9H K 401     105.610 133.290 120.244  1.00  0.00    -0.195 NA
ATOM     11  N3  Y9H K 401     107.311 132.765 121.911  1.00  0.00    -0.211 NA
ATOM     12  N4  Y9H K 401     107.116 134.890 121.242  1.00  0.00    -0.284 N 
ATOM     13  C9  Y9H K 401     108.233 133.545 122.564  1.00  0.00    +0.091 A 
ATOM     14  C14 Y9H K 401     108.135 134.901 122.165  1.00  0.00    +0.074 A 
ATOM     15  C15 Y9H K 401     106.572 135.915 120.517  1.00  0.00    +0.099 A 
ATOM     16  C16 Y9H K 401     105.527 135.624 119.634  1.00  0.00    +0.065 A 
ATOM     17  C10 Y9H K 401     109.192 133.179 123.516  1.00  0.00    +0.031 A 
ATOM     18  C13 Y9H K 401     108.943 135.920 122.665  1.00  0.00    +0.029 A 
ATOM     19  C11 Y9H K 401     110.012 134.183 124.031  1.00  0.00    +0.002 A 
ATOM     20  C12 Y9H K 401     109.885 135.510 123.613  1.00  0.00    +0.002 A 
ENDBRANCH   3   8
ENDBRANCH   1   2
BRANCH   1  21
ATOM     21  C17 Y9H K 401      99.687 131.672 117.768  1.00  0.00    +0.215 C 
ATOM     22  F1  Y9H K 401      98.852 131.598 118.901  1.00  0.00    -0.251 F 
ENDBRANCH   1  21
TORSDOF 3
