REMARK SMILES FCCC1CCN(c2ccn3c(n2)nc2ccccc23)CC1
REMARK SMILES IDX 1 1 2 2 3 3 4 4 5 5 22 6 6 7 21 8 7 9 8 10 9 11 13 12 10 13
REMARK SMILES IDX 12 14 11 15 14 16 20 17 15 18 19 19 16 20 18 21 17 22
REMARK H PARENT
ROOT
ATOM      1  F   UNL     1      -6.671   0.084  -0.639  1.00  0.00    -0.251 F 
ATOM      2  C   UNL     1      -5.961  -1.052  -0.411  1.00  0.00    +0.215 C 
ENDROOT
BRANCH   2   3
ATOM      3  C   UNL     1      -4.924  -0.785   0.669  1.00  0.00    +0.038 C 
BRANCH   3   4
ATOM      4  C   UNL     1      -3.965   0.374   0.331  1.00  0.00    -0.005 C 
ATOM      5  C   UNL     1      -3.001   0.650   1.499  1.00  0.00    +0.025 C 
ATOM      6  C   UNL     1      -3.195   0.119  -0.975  1.00  0.00    +0.025 C 
ATOM      7  C   UNL     1      -1.636  -0.002   1.290  1.00  0.00    +0.118 C 
ATOM      8  C   UNL     1      -1.883   0.899  -1.028  1.00  0.00    +0.118 C 
ATOM      9  N   UNL     1      -0.996   0.512   0.069  1.00  0.00    -0.356 N 
ATOM     10  C   UNL     1       0.391   0.440  -0.057  1.00  0.00    +0.134 C 
ATOM     11  C   UNL     1       1.095   1.218  -1.149  1.00  0.00    +0.065 C 
ATOM     12  N   UNL     1       1.058  -0.302   0.799  1.00  0.00    -0.195 NA
ATOM     13  C   UNL     1       2.427   1.104  -1.226  1.00  0.00    +0.099 C 
ATOM     14  C   UNL     1       2.413  -0.390   0.682  1.00  0.00    +0.236 A 
ATOM     15  N   UNL     1       3.090   0.298  -0.316  1.00  0.00    -0.284 N 
ATOM     16  N   UNL     1       3.256  -1.081   1.423  1.00  0.00    -0.211 NA
ATOM     17  C   UNL     1       4.434   0.022  -0.190  1.00  0.00    +0.074 A 
ATOM     18  C   UNL     1       4.499  -0.839   0.901  1.00  0.00    +0.091 A 
ATOM     19  C   UNL     1       5.570   0.429  -0.903  1.00  0.00    +0.029 A 
ATOM     20  C   UNL     1       5.747  -1.329   1.317  1.00  0.00    +0.031 A 
ATOM     21  C   UNL     1       6.805  -0.070  -0.473  1.00  0.00    +0.002 A 
ATOM     22  C   UNL     1       6.895  -0.935   0.619  1.00  0.00    +0.002 A 
ENDBRANCH   3   4
ENDBRANCH   2   3
TORSDOF 2
