REMARK SMILES O=C1NC(=O)S(=O)(=O)N1c1ccccc1
REMARK SMILES IDX 5 1 4 2 3 3 2 4 1 5 9 6 6 7 7 8 8 9 10 11 11 12 15 13 12 14
REMARK SMILES IDX 14 15 13 16
REMARK H PARENT 3 10
ROOT
ATOM      1  O   UNL     1      -4.434  -0.725   0.669  1.00  0.00    -0.254 OA
ATOM      2  C   UNL     1      -3.335  -0.266   0.400  1.00  0.00    +0.365 C 
ATOM      3  N   UNL     1      -2.974   1.045   0.249  1.00  0.00    -0.262 N 
ATOM      4  C   UNL     1      -1.650   1.314   0.037  1.00  0.00    +0.343 C 
ATOM      5  O   UNL     1      -1.202   2.451   0.029  1.00  0.00    -0.247 OA
ATOM      6  N   UNL     1      -0.909   0.136  -0.156  1.00  0.00    -0.180 N 
ATOM      7  S   UNL     1      -1.839  -1.221   0.169  1.00  0.00    +0.327 S 
ATOM      8  O   UNL     1      -1.986  -2.007  -1.037  1.00  0.00    -0.195 OA
ATOM      9  O   UNL     1      -1.475  -1.775   1.455  1.00  0.00    -0.195 OA
ATOM     10  H   UNL     1      -3.626   1.793   0.415  1.00  0.00    +0.176 HD
ENDROOT
BRANCH   6  11
ATOM     11  C   UNL     1       0.508   0.083  -0.086  1.00  0.00    +0.062 A 
ATOM     12  C   UNL     1       1.216   0.774   0.902  1.00  0.00    +0.027 A 
ATOM     13  C   UNL     1       1.200  -0.752  -0.969  1.00  0.00    +0.027 A 
ATOM     14  C   UNL     1       2.606   0.657   0.983  1.00  0.00    +0.002 A 
ATOM     15  C   UNL     1       2.589  -0.869  -0.886  1.00  0.00    +0.002 A 
ATOM     16  C   UNL     1       3.292  -0.163   0.088  1.00  0.00    +0.000 A 
ENDBRANCH   6  11
TORSDOF 1
