REMARK SMILES Cc1ccc(Nc2nc3ccccc3s2)cc1
REMARK SMILES IDX 1 1 2 2 3 3 4 4 5 5 16 6 17 7 6 8 7 10 8 11 15 12 9 13 14 14
REMARK SMILES IDX 10 15 13 16 11 17 12 18
REMARK H PARENT 6 9
ROOT
ATOM      1  C   UNL     1       5.525   0.766   0.270  1.00  0.00    +0.044 C 
ATOM      2  C   UNL     1       4.125   0.285   0.032  1.00  0.00    -0.051 A 
ATOM      3  C   UNL     1       3.054   0.834   0.742  1.00  0.00    +0.005 A 
ATOM      4  C   UNL     1       1.749   0.365   0.542  1.00  0.00    +0.026 A 
ATOM      5  C   UNL     1       1.484  -0.674  -0.355  1.00  0.00    +0.040 A 
ATOM      6  C   UNL     1       2.570  -1.226  -1.054  1.00  0.00    +0.026 A 
ATOM      7  C   UNL     1       3.874  -0.760  -0.860  1.00  0.00    +0.005 A 
ENDROOT
BRANCH   5   8
ATOM      8  N   UNL     1       0.198  -1.174  -0.633  1.00  0.00    -0.332 N 
ATOM      9  H   UNL     1       0.190  -2.185  -0.715  1.00  0.00    +0.169 HD
BRANCH   8  10
ATOM     10  C   UNL     1      -1.022  -0.638  -0.393  1.00  0.00    +0.188 A 
ATOM     11  N   UNL     1      -2.064  -1.411  -0.173  1.00  0.00    -0.220 NA
ATOM     12  S   UNL     1      -1.394   1.045  -0.480  1.00  0.00    -0.097 S 
ATOM     13  C   UNL     1      -3.211  -0.656   0.000  1.00  0.00    +0.084 A 
ATOM     14  C   UNL     1      -3.043   0.721  -0.129  1.00  0.00    +0.056 A 
ATOM     15  C   UNL     1      -4.497  -1.160   0.283  1.00  0.00    +0.030 A 
ATOM     16  C   UNL     1      -4.115   1.617   0.016  1.00  0.00    +0.021 A 
ATOM     17  C   UNL     1      -5.572  -0.277   0.431  1.00  0.00    +0.002 A 
ATOM     18  C   UNL     1      -5.381   1.095   0.299  1.00  0.00    +0.002 A 
ENDBRANCH   8  10
ENDBRANCH   5   8
TORSDOF 2
