REMARK SMILES Cc1cc2nc3ccc(N(C)C)cc3[s+]c2cc1N
REMARK SMILES IDX 1 1 2 2 3 3 4 4 5 5 6 6 7 7 8 8 9 9 13 10 14 11 15 12 16 13
REMARK SMILES IDX 17 14 18 15 19 16 10 19 11 20 12 21
REMARK H PARENT 19 17 19 18
ROOT
ATOM      1  C   UNL     1      -5.437  -1.882  -0.073  1.00  0.00    +0.046 C 
ATOM      2  C   UNL     1      -4.249  -0.960  -0.034  1.00  0.00    -0.026 A 
ATOM      3  C   UNL     1      -2.961  -1.513   0.123  1.00  0.00    +0.040 A 
ATOM      4  C   UNL     1      -1.806  -0.749   0.135  1.00  0.00    +0.129 A 
ATOM      5  N   UNL     1      -0.644  -1.411   0.297  1.00  0.00    -0.237 NA
ATOM      6  C   UNL     1       0.556  -0.797   0.313  1.00  0.00    +0.129 A 
ATOM      7  C   UNL     1       1.664  -1.597   0.498  1.00  0.00    +0.036 A 
ATOM      8  C   UNL     1       2.971  -1.080   0.531  1.00  0.00    +0.028 A 
ATOM      9  C   UNL     1       3.240   0.285   0.368  1.00  0.00    +0.042 A 
ATOM     10  C   UNL     1       2.112   1.101   0.197  1.00  0.00    +0.100 A 
ATOM     11  C   UNL     1       0.801   0.579   0.164  1.00  0.00    +0.259 A 
ATOM     12  S   UNL     1      -0.548   1.735  -0.074  1.00  0.00    +0.232 S 
ATOM     13  C   UNL     1      -1.964   0.638  -0.036  1.00  0.00    +0.259 A 
ATOM     14  C   UNL     1      -3.237   1.212  -0.189  1.00  0.00    +0.100 A 
ATOM     15  C   UNL     1      -4.392   0.429  -0.136  1.00  0.00    +0.040 A 
ENDROOT
BRANCH  15  16
ATOM     16  N   UNL     1      -5.632   1.025  -0.404  1.00  0.00    -0.398 N 
ATOM     17  H   UNL     1      -5.678   2.011  -0.167  1.00  0.00    +0.156 HD
ATOM     18  H   UNL     1      -6.429   0.512  -0.044  1.00  0.00    +0.156 HD
ENDBRANCH  15  16
BRANCH   9  19
ATOM     19  N   UNL     1       4.538   0.802   0.417  1.00  0.00    -0.377 N 
ATOM     20  C   UNL     1       4.779   2.169  -0.042  1.00  0.00    +0.143 C 
ATOM     21  C   UNL     1       5.673  -0.112   0.297  1.00  0.00    +0.143 C 
ENDBRANCH   9  19
TORSDOF 2
