REMARK SMILES O=c1c(O)c(-c2cc(O)c(O)c(O)c2)oc2cc(O)cc(O)c12
REMARK SMILES IDX 1 1 2 2 3 3 5 4 15 5 16 6 17 7 18 8 20 9 21 10 23 11 4 12
REMARK SMILES IDX 6 14 7 15 14 16 8 17 12 18 10 19 9 20 13 22 11 24 22 26
REMARK SMILES IDX 19 28
REMARK H PARENT 4 13 9 21 13 23 11 25 22 27 19 29
ROOT
ATOM      1  O   UNL     1       2.253   0.862  -2.795  1.00  0.00    -0.285 OA
ATOM      2  C   UNL     1       1.762   0.542  -1.715  1.00  0.00    +0.238 C 
ATOM      3  C   UNL     1       0.293   0.429  -1.564  1.00  0.00    +0.208 C 
ATOM      4  C   UNL     1      -0.204   0.073  -0.364  1.00  0.00    +0.180 C 
ATOM      5  O   UNL     1       0.583  -0.203   0.748  1.00  0.00    -0.452 OA
ATOM      6  C   UNL     1       1.946  -0.100   0.640  1.00  0.00    +0.146 A 
ATOM      7  C   UNL     1       2.696  -0.377   1.782  1.00  0.00    +0.094 A 
ATOM      8  C   UNL     1       4.085  -0.289   1.729  1.00  0.00    +0.123 A 
ATOM      9  C   UNL     1       4.738   0.071   0.553  1.00  0.00    +0.093 A 
ATOM     10  C   UNL     1       3.983   0.346  -0.585  1.00  0.00    +0.134 A 
ATOM     11  C   UNL     1       2.588   0.260  -0.541  1.00  0.00    +0.111 A 
ENDROOT
BRANCH   3  12
ATOM     12  O   UNL     1      -0.477   0.684  -2.684  1.00  0.00    -0.502 OA
ATOM     13  H   UNL     1       0.166   0.864  -3.403  1.00  0.00    +0.293 HD
ENDBRANCH   3  12
BRANCH   4  14
ATOM     14  C   UNL     1      -1.651  -0.092  -0.100  1.00  0.00    +0.029 A 
ATOM     15  C   UNL     1      -2.100  -1.216   0.618  1.00  0.00    +0.062 A 
ATOM     16  C   UNL     1      -2.591   0.870  -0.519  1.00  0.00    +0.062 A 
ATOM     17  C   UNL     1      -3.453  -1.373   0.892  1.00  0.00    +0.162 A 
ATOM     18  C   UNL     1      -3.944   0.692  -0.238  1.00  0.00    +0.162 A 
ATOM     19  C   UNL     1      -4.371  -0.426   0.466  1.00  0.00    +0.200 A 
BRANCH  17  20
ATOM     20  O   UNL     1      -3.874  -2.471   1.586  1.00  0.00    -0.504 OA
ATOM     21  H   UNL     1      -4.844  -2.362   1.652  1.00  0.00    +0.293 HD
ENDBRANCH  17  20
BRANCH  18  22
ATOM     22  O   UNL     1      -4.891   1.595  -0.635  1.00  0.00    -0.504 OA
ATOM     23  H   UNL     1      -4.448   2.291  -1.150  1.00  0.00    +0.293 HD
ENDBRANCH  18  22
BRANCH  19  24
ATOM     24  O   UNL     1      -5.697  -0.607   0.749  1.00  0.00    -0.502 OA
ATOM     25  H   UNL     1      -6.134   0.176   0.354  1.00  0.00    +0.293 HD
ENDBRANCH  19  24
ENDBRANCH   4  14
BRANCH  10  26
ATOM     26  O   UNL     1       4.675   0.695  -1.713  1.00  0.00    -0.507 OA
ATOM     27  H   UNL     1       4.030   0.855  -2.437  1.00  0.00    +0.293 HD
ENDBRANCH  10  26
BRANCH   8  28
ATOM     28  O   UNL     1       4.780  -0.568   2.869  1.00  0.00    -0.508 OA
ATOM     29  H   UNL     1       5.731  -0.476   2.689  1.00  0.00    +0.293 HD
ENDBRANCH   8  28
TORSDOF 7
