REMARK SMILES COc1ccc2c3c1O[C@H]1CC(=O)C=C[C@]31CCN(C)C2
REMARK SMILES IDX 3 1 4 2 5 3 6 4 7 5 8 6 9 7 10 8 11 9 12 10 13 11 14 12
REMARK SMILES IDX 15 13 16 14 2 15 1 16 21 17 19 18 20 19 18 20 17 22
REMARK H PARENT
REMARK Flexibility Score:    8.900
ROOT
ATOM      1  C   UNL     1       2.857   0.123  -0.026  1.00  0.00    +0.161 A 
ATOM      2  C   UNL     1       2.812   1.483  -0.342  1.00  0.00    +0.051 A 
ATOM      3  C   UNL     1       1.579   2.133  -0.562  1.00  0.00    +0.009 A 
ATOM      4  C   UNL     1       0.365   1.430  -0.521  1.00  0.00    -0.026 A 
ATOM      5  C   UNL     1       0.432   0.058  -0.342  1.00  0.00    +0.016 A 
ATOM      6  C   UNL     1       1.650  -0.557  -0.021  1.00  0.00    +0.166 A 
ATOM      7  O   UNL     1       1.483  -1.866   0.415  1.00  0.00    -0.484 OA
ATOM      8  C   UNL     1       0.209  -2.168  -0.161  1.00  0.00    +0.195 C 
ATOM      9  C   UNL     1      -0.519  -3.379   0.383  1.00  0.00    +0.126 C 
ATOM     10  C   UNL     1      -1.804  -3.540  -0.421  1.00  0.00    +0.159 C 
ATOM     11  O   UNL     1      -2.468  -4.573  -0.388  1.00  0.00    -0.295 OA
ATOM     12  C   UNL     1      -2.282  -2.398  -1.272  1.00  0.00    +0.044 C 
ATOM     13  C   UNL     1      -1.743  -1.170  -1.149  1.00  0.00    -0.008 C 
ATOM     14  C   UNL     1      -0.684  -0.903  -0.108  1.00  0.00    +0.056 C 
ENDROOT
BRANCH   1  15
ATOM     15  O   UNL     1       3.973  -0.597   0.284  1.00  0.00    -0.493 OA
ATOM     16  C   UNL     1       5.201   0.113   0.348  1.00  0.00    +0.278 C 
ENDBRANCH   1  15
BRANCH   4  17
ATOM     17  C   UNL     1      -0.962   2.141  -0.465  1.00  0.00    +0.120 C 
BRANCH  17  18
ATOM     18  N   UNL     1      -1.559   2.051   0.882  1.00  0.00    -0.302 NA
ATOM     19  C   UNL     1      -2.524   3.142   1.066  1.00  0.00    +0.105 C 
BRANCH  18  20
ATOM     20  C   UNL     1      -2.219   0.761   1.170  1.00  0.00    +0.086 CG0
ATOM     21  G   UNL     1      -1.326  -0.505   1.240  1.00  0.00    +0.000 G0
ENDBRANCH  18  20
ENDBRANCH  17  18
ENDBRANCH   4  17
BRANCH  14  22
ATOM     22  C   UNL     1      -1.326  -0.505   1.240  1.00  0.00    +0.035 CG0
ATOM     23  G   UNL     1      -2.219   0.761   1.170  1.00  0.00    +0.000 G0
ENDBRANCH  14  22
TORSDOF 1
