REMARK SMILES CN(C)CCC(c1ccccc1)C1CCCO1
REMARK SMILES IDX 4 1 2 2 1 3 3 4 5 5 6 6 7 7 8 8 12 9 9 10 11 11 10 12 13 13
REMARK SMILES IDX 14 14 17 15 15 16 16 17
REMARK H PARENT
ROOT
ATOM      1  C   UNL     1       2.000   0.352  -1.038  1.00  0.00    +0.084 C 
ENDROOT
BRANCH   1   2
ATOM      2  N   UNL     1       2.880   0.309   0.153  1.00  0.00    -0.309 NA
ATOM      3  C   UNL     1       3.890  -0.756   0.025  1.00  0.00    +0.104 C 
ATOM      4  C   UNL     1       3.551   1.606   0.336  1.00  0.00    +0.104 C 
ENDBRANCH   1   2
BRANCH   1   5
ATOM      5  C   UNL     1       0.871  -0.692  -0.950  1.00  0.00    +0.026 C 
BRANCH   5   6
ATOM      6  C   UNL     1       0.044  -0.602   0.360  1.00  0.00    +0.049 C 
BRANCH   6   7
ATOM      7  C   UNL     1      -0.581   0.767   0.618  1.00  0.00    -0.042 A 
ATOM      8  C   UNL     1      -1.137   1.552  -0.414  1.00  0.00    +0.004 A 
ATOM      9  C   UNL     1      -0.637   1.255   1.938  1.00  0.00    +0.004 A 
ATOM     10  C   UNL     1      -1.705   2.798  -0.131  1.00  0.00    +0.000 A 
ATOM     11  C   UNL     1      -1.211   2.499   2.215  1.00  0.00    +0.000 A 
ATOM     12  C   UNL     1      -1.738   3.274   1.182  1.00  0.00    +0.000 A 
ENDBRANCH   6   7
BRANCH   6  13
ATOM     13  C   UNL     1      -0.987  -1.755   0.469  1.00  0.00    +0.125 C 
ATOM     14  C   UNL     1      -2.036  -1.784  -0.633  1.00  0.00    +0.035 C 
ATOM     15  O   UNL     1      -1.654  -1.706   1.711  1.00  0.00    -0.378 OA
ATOM     16  C   UNL     1      -3.179  -2.485   0.033  1.00  0.00    +0.031 C 
ATOM     17  C   UNL     1      -2.966  -2.183   1.507  1.00  0.00    +0.160 C 
ENDBRANCH   6  13
ENDBRANCH   5   6
ENDBRANCH   1   5
TORSDOF 5
