REMARK SMILES Brc1ccc(-n2nc(-c3ccccc3)cc2Br)cc1
REMARK SMILES IDX 5 1 4 2 3 3 2 4 19 5 18 6 1 7 6 8 16 9 15 10 8 11 7 12 17 13
REMARK SMILES IDX 9 14 10 15 14 16 11 17 13 18 12 19
REMARK H PARENT
ROOT
ATOM      1  C   UNL     1       2.403   0.006   0.060  1.00  0.00    +0.066 A 
ATOM      2  C   UNL     1       2.728  -0.514  -1.203  1.00  0.00    +0.029 A 
ATOM      3  C   UNL     1       4.027  -0.393  -1.705  1.00  0.00    +0.018 A 
ATOM      4  C   UNL     1       5.010   0.261  -0.955  1.00  0.00    +0.018 A 
ATOM      5  C   UNL     1       4.689   0.801   0.294  1.00  0.00    +0.018 A 
ATOM      6  C   UNL     1       3.390   0.681   0.798  1.00  0.00    +0.029 A 
ATOM      7 Br   UNL     1       6.784   0.428  -1.643  1.00  0.00    -0.051 Br
ENDROOT
BRANCH   1   8
ATOM      8  N   UNL     1       1.059  -0.108   0.556  1.00  0.00    -0.226 N 
ATOM      9  C   UNL     1       0.665  -0.425   1.808  1.00  0.00    +0.110 A 
ATOM     10  C   UNL     1      -0.711  -0.452   1.847  1.00  0.00    +0.067 A 
ATOM     11  C   UNL     1      -1.103  -0.137   0.554  1.00  0.00    +0.094 A 
ATOM     12  N   UNL     1      -0.008   0.060  -0.209  1.00  0.00    -0.167 NA
ATOM     13 Br   UNL     1       1.801  -0.936   3.263  1.00  0.00    -0.029 Br
BRANCH  11  14
ATOM     14  C   UNL     1      -2.491  -0.040   0.039  1.00  0.00    +0.002 A 
ATOM     15  C   UNL     1      -3.601  -0.233   0.884  1.00  0.00    +0.010 A 
ATOM     16  C   UNL     1      -2.716   0.252  -1.320  1.00  0.00    +0.010 A 
ATOM     17  C   UNL     1      -4.901  -0.137   0.379  1.00  0.00    +0.001 A 
ATOM     18  C   UNL     1      -4.018   0.347  -1.819  1.00  0.00    +0.001 A 
ATOM     19  C   UNL     1      -5.110   0.153  -0.971  1.00  0.00    +0.000 A 
ENDBRANCH  11  14
ENDBRANCH   1   8
TORSDOF 2
