REMARK SMILES Brc1cccc(-c2cc(-c3ccc4c(c3)OCO4)[nH]n2)c1
REMARK SMILES IDX 1 1 2 2 3 3 4 4 5 5 6 6 21 7 7 8 8 9 20 10 9 11 19 12 10 14
REMARK SMILES IDX 11 15 15 16 12 17 14 18 13 19 16 20 18 21 17 22
REMARK H PARENT 19 13
ROOT
ATOM      1 Br   UNL     1       5.573   1.220   3.266  1.00  0.00    -0.051 Br
ATOM      2  C   UNL     1       5.048   0.539   1.581  1.00  0.00    +0.018 A 
ATOM      3  C   UNL     1       6.021   0.155   0.662  1.00  0.00    +0.016 A 
ATOM      4  C   UNL     1       5.632  -0.345  -0.578  1.00  0.00    +0.002 A 
ATOM      5  C   UNL     1       4.274  -0.457  -0.890  1.00  0.00    +0.010 A 
ATOM      6  C   UNL     1       3.283  -0.074   0.030  1.00  0.00    +0.003 A 
ATOM      7  C   UNL     1       3.689   0.429   1.275  1.00  0.00    +0.026 A 
ENDROOT
BRANCH   6   8
ATOM      8  C   UNL     1       1.861  -0.201  -0.315  1.00  0.00    +0.093 A 
ATOM      9  C   UNL     1       0.724   0.052   0.503  1.00  0.00    +0.059 A 
ATOM     10  N   UNL     1       1.466  -0.603  -1.534  1.00  0.00    -0.175 NA
ATOM     11  C   UNL     1      -0.390  -0.201  -0.275  1.00  0.00    +0.066 A 
ATOM     12  N   UNL     1       0.127  -0.598  -1.479  1.00  0.00    -0.277 N 
ATOM     13  H   UNL     1      -0.383  -0.893  -2.304  1.00  0.00    +0.190 HD
BRANCH  11  14
ATOM     14  C   UNL     1      -1.820  -0.126   0.018  1.00  0.00    +0.004 A 
ATOM     15  C   UNL     1      -2.284  -0.359   1.334  1.00  0.00    +0.014 A 
ATOM     16  C   UNL     1      -2.749   0.181  -0.989  1.00  0.00    +0.061 A 
ATOM     17  C   UNL     1      -3.647  -0.297   1.647  1.00  0.00    +0.051 A 
ATOM     18  C   UNL     1      -4.087   0.236  -0.651  1.00  0.00    +0.166 A 
ATOM     19  C   UNL     1      -4.524   0.004   0.630  1.00  0.00    +0.165 A 
ATOM     20  O   UNL     1      -5.108   0.520  -1.504  1.00  0.00    -0.454 OA
ATOM     21  O   UNL     1      -5.874   0.109   0.746  1.00  0.00    -0.454 OA
ATOM     22  C   UNL     1      -6.238   0.441  -0.609  1.00  0.00    +0.468 C 
ENDBRANCH  11  14
ENDBRANCH   6   8
TORSDOF 2
