REMARK SMILES O=c1cc(-c2ccc(O)cc2)oc2cc(O)cc(O)c12
REMARK SMILES IDX 1 1 2 2 3 3 4 4 12 5 13 6 14 7 15 8 17 9 18 10 20 11 5 12
REMARK SMILES IDX 6 13 11 14 7 15 10 16 8 17 9 18 19 20 16 22
REMARK H PARENT 9 19 19 21 16 23
ROOT
ATOM      1  O   UNL     1       1.784   2.607  -1.801  1.00  0.00    -0.289 OA
ATOM      2  C   UNL     1       1.350   1.616  -1.153  1.00  0.00    +0.197 A 
ATOM      3  C   UNL     1      -0.029   1.438  -1.031  1.00  0.00    +0.100 A 
ATOM      4  C   UNL     1      -0.523   0.336  -0.313  1.00  0.00    +0.138 A 
ATOM      5  O   UNL     1       0.331  -0.529   0.227  1.00  0.00    -0.456 OA
ATOM      6  C   UNL     1       1.652  -0.404   0.138  1.00  0.00    +0.146 A 
ATOM      7  C   UNL     1       2.470  -1.364   0.741  1.00  0.00    +0.094 A 
ATOM      8  C   UNL     1       3.863  -1.254   0.664  1.00  0.00    +0.123 A 
ATOM      9  C   UNL     1       4.439  -0.179  -0.018  1.00  0.00    +0.093 A 
ATOM     10  C   UNL     1       3.635   0.794  -0.631  1.00  0.00    +0.134 A 
ATOM     11  C   UNL     1       2.226   0.687  -0.558  1.00  0.00    +0.107 A 
ENDROOT
BRANCH   4  12
ATOM     12  C   UNL     1      -1.980   0.097  -0.149  1.00  0.00    +0.018 A 
ATOM     13  C   UNL     1      -2.913   1.156  -0.170  1.00  0.00    +0.016 A 
ATOM     14  C   UNL     1      -2.445  -1.215   0.064  1.00  0.00    +0.016 A 
ATOM     15  C   UNL     1      -4.277   0.900  -0.007  1.00  0.00    +0.047 A 
ATOM     16  C   UNL     1      -3.811  -1.464   0.230  1.00  0.00    +0.047 A 
ATOM     17  C   UNL     1      -4.730  -0.410   0.192  1.00  0.00    +0.115 A 
BRANCH  17  18
ATOM     18  O   UNL     1      -6.088  -0.675   0.354  1.00  0.00    -0.508 OA
ATOM     19  H   UNL     1      -6.780   0.063   0.316  1.00  0.00    +0.293 HD
ENDBRANCH  17  18
ENDBRANCH   4  12
BRANCH  10  20
ATOM     20  O   UNL     1       4.239   1.856  -1.306  1.00  0.00    -0.507 OA
ATOM     21  H   UNL     1       5.248   1.942  -1.367  1.00  0.00    +0.293 HD
ENDBRANCH  10  20
BRANCH   8  22
ATOM     22  O   UNL     1       4.684  -2.208   1.261  1.00  0.00    -0.508 OA
ATOM     23  H   UNL     1       4.298  -3.001   1.763  1.00  0.00    +0.293 HD
ENDBRANCH   8  22
TORSDOF 4
