REMARK SMILES O=c1cc(-c2ccc(O)cc2)oc2cc(O)cc(O)c12
REMARK SMILES IDX 1 1 2 2 3 3 4 4 12 5 13 6 14 7 15 8 17 9 18 10 20 11 5 12
REMARK SMILES IDX 6 13 11 14 7 15 10 16 8 17 9 18 19 20 16 22
REMARK H PARENT 9 19 19 21 16 23
ROOT
ATOM      1  O   UNL     1      -1.604  -2.986   1.154  1.00  0.00    -0.289 OA
ATOM      2  C   UNL     1      -1.219  -1.917   0.693  1.00  0.00    +0.197 C 
ATOM      3  C   UNL     1       0.202  -1.543   0.691  1.00  0.00    +0.100 C 
ATOM      4  C   UNL     1       0.564  -0.363   0.167  1.00  0.00    +0.138 C 
ATOM      5  O   UNL     1      -0.325   0.557  -0.368  1.00  0.00    -0.456 OA
ATOM      6  C   UNL     1      -1.661   0.243  -0.387  1.00  0.00    +0.146 A 
ATOM      7  C   UNL     1      -2.528   1.185  -0.941  1.00  0.00    +0.094 A 
ATOM      8  C   UNL     1      -3.894   0.918  -0.984  1.00  0.00    +0.123 A 
ATOM      9  C   UNL     1      -4.410  -0.274  -0.483  1.00  0.00    +0.093 A 
ATOM     10  C   UNL     1      -3.539  -1.211   0.069  1.00  0.00    +0.134 A 
ATOM     11  C   UNL     1      -2.165  -0.953   0.118  1.00  0.00    +0.107 A 
ENDROOT
BRANCH   4  12
ATOM     12  C   UNL     1       1.973   0.076   0.144  1.00  0.00    +0.018 A 
ATOM     13  C   UNL     1       2.298   1.406   0.459  1.00  0.00    +0.016 A 
ATOM     14  C   UNL     1       3.010  -0.801  -0.213  1.00  0.00    +0.016 A 
ATOM     15  C   UNL     1       3.625   1.846   0.435  1.00  0.00    +0.047 A 
ATOM     16  C   UNL     1       4.336  -0.362  -0.237  1.00  0.00    +0.047 A 
ATOM     17  C   UNL     1       4.634   0.955   0.088  1.00  0.00    +0.115 A 
BRANCH  17  18
ATOM     18  O   UNL     1       5.941   1.339   0.050  1.00  0.00    -0.508 OA
ATOM     19  H   UNL     1       5.997   2.278   0.290  1.00  0.00    +0.293 HD
ENDBRANCH  17  18
ENDBRANCH   4  12
BRANCH  10  20
ATOM     20  O   UNL     1      -4.098  -2.366   0.547  1.00  0.00    -0.507 OA
ATOM     21  H   UNL     1      -3.376  -2.931   0.906  1.00  0.00    +0.293 HD
ENDBRANCH  10  20
BRANCH   8  22
ATOM     22  O   UNL     1      -4.706   1.865  -1.534  1.00  0.00    -0.508 OA
ATOM     23  H   UNL     1      -5.624   1.547  -1.504  1.00  0.00    +0.293 HD
ENDBRANCH   8  22
TORSDOF 4
