REMARK SMILES NS(=O)(=O)c1ccc(C(F)(F)c2ccc(Cl)c(NC(=O)C(F)(F)C(F)(F)F)c2)cc1
REMARK SMILES IDX 12 1 13 2 14 3 15 4 16 5 17 6 28 7 9 8 10 9 11 10 8 11 5 12
REMARK SMILES IDX 6 13 30 14 7 15 29 16 2 17 3 18 4 19 1 20 18 23 19 24 20 25
REMARK SMILES IDX 21 27 22 28 23 29 24 30 25 31 26 32 27 33
REMARK H PARENT 1 21 1 22 18 26
ROOT
ATOM      1  C   UNL     1       0.186  -1.656  -0.648  1.00  0.00    +0.028 A 
ATOM      2  C   UNL     1      -0.172  -1.461  -1.993  1.00  0.00    +0.012 A 
ATOM      3  C   UNL     1       0.721  -0.862  -2.883  1.00  0.00    +0.023 A 
ATOM      4  C   UNL     1       1.982  -0.443  -2.444  1.00  0.00    +0.064 A 
ATOM      5 Cl   UNL     1       3.071   0.311  -3.601  1.00  0.00    -0.082 Cl
ATOM      6  C   UNL     1       2.349  -0.603  -1.094  1.00  0.00    +0.060 A 
ATOM      7  C   UNL     1       1.446  -1.213  -0.206  1.00  0.00    +0.038 A 
ENDROOT
BRANCH   1   8
ATOM      8  C   UNL     1      -0.792  -2.313   0.302  1.00  0.00    +0.298 C 
ATOM      9  F   UNL     1      -0.164  -2.695   1.478  1.00  0.00    -0.196 F 
ATOM     10  F   UNL     1      -1.285  -3.469  -0.285  1.00  0.00    -0.196 F 
BRANCH   8  11
ATOM     11  C   UNL     1      -1.918  -1.356   0.630  1.00  0.00    +0.026 A 
ATOM     12  C   UNL     1      -3.994   0.452   1.234  1.00  0.00    +0.082 A 
ATOM     13  C   UNL     1      -2.754   0.561   1.877  1.00  0.00    +0.022 A 
ATOM     14  C   UNL     1      -4.186  -0.547   0.272  1.00  0.00    +0.022 A 
ATOM     15  C   UNL     1      -1.722  -0.333   1.575  1.00  0.00    +0.012 A 
ATOM     16  C   UNL     1      -3.156  -1.439  -0.035  1.00  0.00    +0.012 A 
BRANCH  12  17
ATOM     17  S   UNL     1      -5.315   1.553   1.618  1.00  0.00    +0.238 S 
ATOM     18  O   UNL     1      -6.527   0.755   2.001  1.00  0.00    -0.207 OA
ATOM     19  O   UNL     1      -4.936   2.442   2.768  1.00  0.00    -0.207 OA
BRANCH  17  20
ATOM     20  N   UNL     1      -5.681   2.534   0.243  1.00  0.00    -0.225 NA
ATOM     21  H   UNL     1      -4.871   3.176   0.099  1.00  0.00    +0.137 HD
ATOM     22  H   UNL     1      -5.717   1.902  -0.588  1.00  0.00    +0.137 HD
ENDBRANCH  17  20
ENDBRANCH  12  17
ENDBRANCH   8  11
ENDBRANCH   1   8
BRANCH   6  23
ATOM     23  N   UNL     1       3.658  -0.210  -0.647  1.00  0.00    -0.319 N 
ATOM     24  C   UNL     1       3.901   0.465   0.599  1.00  0.00    +0.304 C 
ATOM     25  O   UNL     1       2.930   0.873   1.294  1.00  0.00    -0.267 OA
ATOM     26  H   UNL     1       4.469  -0.409  -1.278  1.00  0.00    +0.170 HD
BRANCH  24  27
ATOM     27  C   UNL     1       5.315   0.637   1.105  1.00  0.00    +0.417 C 
ATOM     28  F   UNL     1       5.662  -0.487   1.834  1.00  0.00    -0.185 F 
ATOM     29  F   UNL     1       6.185   0.750   0.031  1.00  0.00    -0.185 F 
BRANCH  27  30
ATOM     30  C   UNL     1       5.481   1.883   1.988  1.00  0.00    +0.463 C 
ATOM     31  F   UNL     1       6.813   2.030   2.337  1.00  0.00    -0.164 F 
ATOM     32  F   UNL     1       4.733   1.758   3.147  1.00  0.00    -0.164 F 
ATOM     33  F   UNL     1       5.075   3.012   1.301  1.00  0.00    -0.164 F 
ENDBRANCH  27  30
ENDBRANCH  24  27
ENDBRANCH   6  23
TORSDOF 7
