REMARK SMILES N#Cc1ccc2[nH]c(O)c(-c3ccc(CN4CCOCC4)cn3)c2c1
REMARK SMILES IDX 1 1 2 2 3 3 4 4 5 5 6 6 7 7 8 8 10 9 24 10 25 11 11 13 12 14
REMARK SMILES IDX 23 15 13 16 22 17 14 18 15 19 16 20 17 21 21 22 18 23 20 24
REMARK SMILES IDX 19 25 9 26
REMARK H PARENT 7 12 9 27
ROOT
ATOM      1  N   UNL     1      -6.271  -1.866  -3.454  1.00  0.00    -0.192 NA
ATOM      2  C   UNL     1      -5.970  -1.424  -2.424  1.00  0.00    +0.099 C 
ATOM      3  C   UNL     1      -5.589  -0.881  -1.153  1.00  0.00    +0.053 A 
ATOM      4  C   UNL     1      -6.549  -0.702  -0.156  1.00  0.00    +0.021 A 
ATOM      5  C   UNL     1      -6.202  -0.163   1.085  1.00  0.00    +0.028 A 
ATOM      6  C   UNL     1      -4.861   0.182   1.294  1.00  0.00    +0.049 A 
ATOM      7  N   UNL     1      -4.261   0.744   2.396  1.00  0.00    -0.325 N 
ATOM      8  C   UNL     1      -2.933   0.943   2.164  1.00  0.00    +0.199 A 
ATOM      9  C   UNL     1      -2.625   0.452   0.907  1.00  0.00    +0.069 A 
ATOM     10  C   UNL     1      -3.863   0.001   0.330  1.00  0.00    +0.014 A 
ATOM     11  C   UNL     1      -4.248  -0.530  -0.923  1.00  0.00    +0.030 A 
ATOM     12  H   UNL     1      -4.729   1.011   3.249  1.00  0.00    +0.170 HD
ENDROOT
BRANCH   9  13
ATOM     13  C   UNL     1      -1.259   0.472   0.388  1.00  0.00    +0.076 A 
ATOM     14  C   UNL     1      -0.809  -0.454  -0.546  1.00  0.00    +0.029 A 
ATOM     15  N   UNL     1      -0.444   1.423   0.921  1.00  0.00    -0.256 NA
ATOM     16  C   UNL     1       0.514  -0.383  -0.983  1.00  0.00    +0.009 A 
ATOM     17  C   UNL     1       0.833   1.469   0.474  1.00  0.00    +0.116 A 
ATOM     18  C   UNL     1       1.363   0.600  -0.473  1.00  0.00    -0.016 A 
BRANCH  18  19
ATOM     19  C   UNL     1       2.796   0.726  -0.926  1.00  0.00    +0.121 C 
BRANCH  19  20
ATOM     20  N   UNL     1       3.765   0.570   0.169  1.00  0.00    -0.294 NA
ATOM     21  C   UNL     1       3.729  -0.796   0.743  1.00  0.00    +0.113 C 
ATOM     22  C   UNL     1       5.138   0.914  -0.263  1.00  0.00    +0.113 C 
ATOM     23  C   UNL     1       5.057  -1.172   1.416  1.00  0.00    +0.175 C 
ATOM     24  C   UNL     1       5.998  -0.311  -0.609  1.00  0.00    +0.175 C 
ATOM     25  O   UNL     1       6.148  -1.224   0.485  1.00  0.00    -0.379 OA
ENDBRANCH  19  20
ENDBRANCH  18  19
ENDBRANCH   9  13
BRANCH   8  26
ATOM     26  O   UNL     1      -2.186   1.530   3.093  1.00  0.00    -0.494 OA
ATOM     27  H   UNL     1      -1.313   1.671   2.660  1.00  0.00    +0.295 HD
ENDBRANCH   8  26
TORSDOF 4
