REMARK SMILES N#Cc1ccc2[nH]c(O)c(-c3ccc(CN4CCOCC4)cn3)c2c1
REMARK SMILES IDX 1 1 2 2 3 3 4 4 5 5 6 6 7 7 8 8 10 9 24 10 25 11 11 13 12 14
REMARK SMILES IDX 23 15 13 16 22 17 14 18 15 19 16 20 17 21 21 22 18 23 20 24
REMARK SMILES IDX 19 25 9 26
REMARK H PARENT 7 12 9 27
ROOT
ATOM      1  N   UNL     1       5.490  -4.215  -2.395  1.00  0.00    -0.192 NA
ATOM      2  C   UNL     1       5.380  -3.190  -1.861  1.00  0.00    +0.099 C 
ATOM      3  C   UNL     1       5.235  -1.924  -1.204  1.00  0.00    +0.053 A 
ATOM      4  C   UNL     1       6.347  -1.101  -1.024  1.00  0.00    +0.021 A 
ATOM      5  C   UNL     1       6.231   0.131  -0.376  1.00  0.00    +0.028 A 
ATOM      6  C   UNL     1       4.962   0.511   0.077  1.00  0.00    +0.049 A 
ATOM      7  N   UNL     1       4.576   1.642   0.756  1.00  0.00    -0.325 N 
ATOM      8  C   UNL     1       3.242   1.599   1.032  1.00  0.00    +0.199 A 
ATOM      9  C   UNL     1       2.713   0.446   0.476  1.00  0.00    +0.069 A 
ATOM     10  C   UNL     1       3.817  -0.273  -0.101  1.00  0.00    +0.014 A 
ATOM     11  C   UNL     1       3.970  -1.523  -0.744  1.00  0.00    +0.030 A 
ATOM     12  H   UNL     1       5.186   2.391   1.048  1.00  0.00    +0.170 HD
ENDROOT
BRANCH   9  13
ATOM     13  C   UNL     1       1.286   0.140   0.556  1.00  0.00    +0.076 A 
ATOM     14  C   UNL     1       0.642  -0.637  -0.399  1.00  0.00    +0.029 A 
ATOM     15  N   UNL     1       0.623   0.711   1.598  1.00  0.00    -0.256 NA
ATOM     16  C   UNL     1      -0.727  -0.874  -0.266  1.00  0.00    +0.009 A 
ATOM     17  C   UNL     1      -0.704   0.460   1.703  1.00  0.00    +0.116 A 
ATOM     18  C   UNL     1      -1.427  -0.319   0.807  1.00  0.00    -0.016 A 
BRANCH  18  19
ATOM     19  C   UNL     1      -2.902  -0.568   1.004  1.00  0.00    +0.121 C 
BRANCH  19  20
ATOM     20  N   UNL     1      -3.687   0.670   1.120  1.00  0.00    -0.294 NA
ATOM     21  C   UNL     1      -3.765   1.427  -0.152  1.00  0.00    +0.113 C 
ATOM     22  C   UNL     1      -5.069   0.393   1.573  1.00  0.00    +0.113 C 
ATOM     23  C   UNL     1      -4.690   0.795  -1.206  1.00  0.00    +0.175 C 
ATOM     24  C   UNL     1      -5.970  -0.229   0.493  1.00  0.00    +0.175 C 
ATOM     25  O   UNL     1      -6.008   0.583  -0.686  1.00  0.00    -0.379 OA
ENDBRANCH  19  20
ENDBRANCH  18  19
ENDBRANCH   9  13
BRANCH   8  26
ATOM     26  O   UNL     1       2.685   2.580   1.733  1.00  0.00    -0.494 OA
ATOM     27  H   UNL     1       1.764   2.275   1.905  1.00  0.00    +0.295 HD
ENDBRANCH   8  26
TORSDOF 4
