REMARK SMILES N#Cc1ccc2[nH]c(O)c(-c3ccc(CN4CCOCC4)cn3)c2c1
REMARK SMILES IDX 1 1 2 2 3 3 4 4 5 5 6 6 7 7 8 8 10 9 24 10 25 11 11 13 12 14
REMARK SMILES IDX 23 15 13 16 22 17 14 18 15 19 16 20 17 21 21 22 18 23 20 24
REMARK SMILES IDX 19 25 9 26
REMARK H PARENT 7 12 9 27
ROOT
ATOM      1  N   UNL     1       4.234   4.904   0.140  1.00  0.00    -0.192 NA
ATOM      2  C   UNL     1       4.373   3.752   0.193  1.00  0.00    +0.099 C 
ATOM      3  C   UNL     1       4.556   2.331   0.251  1.00  0.00    +0.053 A 
ATOM      4  C   UNL     1       5.846   1.793   0.212  1.00  0.00    +0.021 A 
ATOM      5  C   UNL     1       6.054   0.411   0.265  1.00  0.00    +0.028 A 
ATOM      6  C   UNL     1       4.925  -0.410   0.359  1.00  0.00    +0.049 A 
ATOM      7  N   UNL     1       4.827  -1.779   0.431  1.00  0.00    -0.325 N 
ATOM      8  C   UNL     1       3.519  -2.168   0.539  1.00  0.00    +0.199 A 
ATOM      9  C   UNL     1       2.734  -1.030   0.485  1.00  0.00    +0.069 A 
ATOM     10  C   UNL     1       3.623   0.091   0.401  1.00  0.00    +0.014 A 
ATOM     11  C   UNL     1       3.439   1.490   0.344  1.00  0.00    +0.030 A 
ATOM     12  H   UNL     1       5.606  -2.421   0.442  1.00  0.00    +0.170 HD
ENDROOT
BRANCH   9  13
ATOM     13  C   UNL     1       1.281  -1.024   0.525  1.00  0.00    +0.076 A 
ATOM     14  C   UNL     1       0.535  -1.843  -0.318  1.00  0.00    +0.029 A 
ATOM     15  N   UNL     1       0.718  -0.168   1.406  1.00  0.00    -0.256 NA
ATOM     16  C   UNL     1      -0.856  -1.788  -0.244  1.00  0.00    +0.009 A 
ATOM     17  C   UNL     1      -0.634  -0.134   1.455  1.00  0.00    +0.116 A 
ATOM     18  C   UNL     1      -1.467  -0.915   0.659  1.00  0.00    -0.016 A 
BRANCH  18  19
ATOM     19  C   UNL     1      -2.968  -0.829   0.785  1.00  0.00    +0.121 C 
BRANCH  19  20
ATOM     20  N   UNL     1      -3.499   0.533   0.590  1.00  0.00    -0.294 NA
ATOM     21  C   UNL     1      -3.284   1.023  -0.787  1.00  0.00    +0.113 C 
ATOM     22  C   UNL     1      -4.953   0.561   0.890  1.00  0.00    +0.113 C 
ATOM     23  C   UNL     1      -4.105   0.278  -1.860  1.00  0.00    +0.175 C 
ATOM     24  C   UNL     1      -5.877   0.668  -0.340  1.00  0.00    +0.175 C 
ATOM     25  O   UNL     1      -5.398  -0.151  -1.408  1.00  0.00    -0.379 OA
ENDBRANCH  19  20
ENDBRANCH  18  19
ENDBRANCH   9  13
BRANCH   8  26
ATOM     26  O   UNL     1       3.248  -3.460   0.684  1.00  0.00    -0.494 OA
ATOM     27  H   UNL     1       2.315  -3.536   0.956  1.00  0.00    +0.295 HD
ENDBRANCH   8  26
TORSDOF 4
