REMARK SMILES N#Cc1ccc2[nH]c(O)c(-c3ccc(CN4CCOCC4)cn3)c2c1
REMARK SMILES IDX 1 1 2 2 3 3 4 4 5 5 6 6 7 7 8 8 10 9 24 10 25 11 11 13 12 14
REMARK SMILES IDX 23 15 13 16 22 17 14 18 15 19 16 20 17 21 21 22 18 23 20 24
REMARK SMILES IDX 19 25 9 26
REMARK H PARENT 7 12 9 27
ROOT
ATOM      1  N   UNL     1      -6.189  -2.431   3.408  1.00  0.00    -0.192 NA
ATOM      2  C   UNL     1      -5.904  -1.897   2.417  1.00  0.00    +0.099 C 
ATOM      3  C   UNL     1      -5.543  -1.242   1.193  1.00  0.00    +0.053 A 
ATOM      4  C   UNL     1      -6.503  -1.042   0.201  1.00  0.00    +0.021 A 
ATOM      5  C   UNL     1      -6.177  -0.394  -0.993  1.00  0.00    +0.028 A 
ATOM      6  C   UNL     1      -4.855   0.036  -1.160  1.00  0.00    +0.049 A 
ATOM      7  N   UNL     1      -4.278   0.710  -2.210  1.00  0.00    -0.325 N 
ATOM      8  C   UNL     1      -2.965   0.962  -1.949  1.00  0.00    +0.199 A 
ATOM      9  C   UNL     1      -2.640   0.396  -0.728  1.00  0.00    +0.069 A 
ATOM     10  C   UNL     1      -3.856  -0.162  -0.200  1.00  0.00    +0.014 A 
ATOM     11  C   UNL     1      -4.222  -0.804   1.005  1.00  0.00    +0.030 A 
ATOM     12  H   UNL     1      -4.754   1.014  -3.047  1.00  0.00    +0.170 HD
ENDROOT
BRANCH   9  13
ATOM     13  C   UNL     1      -1.281   0.451  -0.193  1.00  0.00    +0.076 A 
ATOM     14  C   UNL     1      -0.789  -0.516   0.675  1.00  0.00    +0.029 A 
ATOM     15  N   UNL     1      -0.515   1.481  -0.645  1.00  0.00    -0.256 NA
ATOM     16  C   UNL     1       0.525  -0.407   1.132  1.00  0.00    +0.009 A 
ATOM     17  C   UNL     1       0.755   1.562  -0.181  1.00  0.00    +0.116 A 
ATOM     18  C   UNL     1       1.324   0.655   0.705  1.00  0.00    -0.016 A 
BRANCH  18  19
ATOM     19  C   UNL     1       2.744   0.823   1.183  1.00  0.00    +0.121 C 
BRANCH  19  20
ATOM     20  N   UNL     1       3.728   0.801   0.091  1.00  0.00    -0.294 NA
ATOM     21  C   UNL     1       3.771  -0.519  -0.582  1.00  0.00    +0.113 C 
ATOM     22  C   UNL     1       5.077   1.185   0.563  1.00  0.00    +0.113 C 
ATOM     23  C   UNL     1       5.123  -0.773  -1.266  1.00  0.00    +0.175 C 
ATOM     24  C   UNL     1       6.000  -0.015   0.828  1.00  0.00    +0.175 C 
ATOM     25  O   UNL     1       6.207  -0.835  -0.329  1.00  0.00    -0.379 OA
ENDBRANCH  19  20
ENDBRANCH  18  19
ENDBRANCH   9  13
BRANCH   8  26
ATOM     26  O   UNL     1      -2.243   1.655  -2.824  1.00  0.00    -0.494 OA
ATOM     27  H   UNL     1      -1.382   1.810  -2.371  1.00  0.00    +0.295 HD
ENDBRANCH   8  26
TORSDOF 4
