REMARK SMILES Cc1nc(-c2ccncc2)c(N2CCOCC2)c(-c2ccccc2F)n1
REMARK SMILES IDX 1 1 2 2 26 3 18 4 11 5 4 6 3 7 19 8 20 9 24 10 21 11 23 12
REMARK SMILES IDX 22 13 25 14 5 15 6 16 10 17 7 18 9 19 8 20 12 21 13 22 17 23
REMARK SMILES IDX 14 24 16 25 15 26
REMARK H PARENT
ROOT
ATOM      1  C   UNL     1      -0.588  -4.499   1.633  1.00  0.00    +0.089 C 
ATOM      2  C   UNL     1      -0.427  -3.133   1.056  1.00  0.00    +0.126 A 
ATOM      3  N   UNL     1       0.801  -2.575   0.933  1.00  0.00    -0.231 NA
ATOM      4  C   UNL     1       0.950  -1.301   0.488  1.00  0.00    +0.101 A 
ATOM      5  C   UNL     1      -0.189  -0.536   0.120  1.00  0.00    +0.090 A 
ATOM      6  C   UNL     1      -1.443  -1.192   0.146  1.00  0.00    +0.098 A 
ATOM      7  N   UNL     1      -1.525  -2.452   0.638  1.00  0.00    -0.231 NA
ENDROOT
BRANCH   4   8
ATOM      8  C   UNL     1       2.318  -0.814   0.318  1.00  0.00    +0.038 A 
ATOM      9  C   UNL     1       3.009  -1.095  -0.878  1.00  0.00    +0.013 A 
ATOM     10  C   UNL     1       2.965  -0.117   1.347  1.00  0.00    +0.132 A 
ATOM     11  C   UNL     1       4.318  -0.637  -1.063  1.00  0.00    +0.001 A 
ATOM     12  C   UNL     1       4.283   0.319   1.173  1.00  0.00    +0.040 A 
ATOM     13  C   UNL     1       4.960   0.054  -0.029  1.00  0.00    +0.003 A 
ATOM     14  F   UNL     1       2.324   0.140   2.520  1.00  0.00    -0.206 F 
ENDBRANCH   4   8
BRANCH   6  15
ATOM     15  C   UNL     1      -2.682  -0.552  -0.340  1.00  0.00    +0.005 A 
ATOM     16  C   UNL     1      -2.757  -0.051  -1.650  1.00  0.00    +0.030 A 
ATOM     17  C   UNL     1      -3.797  -0.432   0.503  1.00  0.00    +0.030 A 
ATOM     18  C   UNL     1      -3.941   0.542  -2.100  1.00  0.00    +0.111 A 
ATOM     19  C   UNL     1      -4.954   0.200   0.030  1.00  0.00    +0.111 A 
ATOM     20  N   UNL     1      -5.008   0.655  -1.257  1.00  0.00    -0.265 NA
ENDBRANCH   6  15
BRANCH   5  21
ATOM     21  N   UNL     1      -0.102   0.892  -0.099  1.00  0.00    -0.363 N 
ATOM     22  C   UNL     1      -0.871   1.768   0.792  1.00  0.00    +0.145 C 
ATOM     23  C   UNL     1       0.642   1.429  -1.266  1.00  0.00    +0.145 C 
ATOM     24  C   UNL     1      -0.357   3.190   0.716  1.00  0.00    +0.181 C 
ATOM     25  C   UNL     1       0.665   2.976  -1.346  1.00  0.00    +0.181 C 
ATOM     26  O   UNL     1      -0.391   3.601  -0.632  1.00  0.00    -0.378 OA
ENDBRANCH   5  21
TORSDOF 3
