REMARK SMILES N#Cc1ccc2[nH]c(O)c(-c3ccc(CN4CCOCC4)cn3)c2c1
REMARK SMILES IDX 1 1 2 2 3 3 4 4 5 5 6 6 7 7 8 8 10 9 24 10 25 11 11 13 12 14
REMARK SMILES IDX 23 15 13 16 22 17 14 18 15 19 16 20 17 21 21 22 18 23 20 24
REMARK SMILES IDX 19 25 9 26
REMARK H PARENT 7 12 9 27
ROOT
ATOM      1  N   UNL     1      -4.240   2.804  -3.653  1.00  0.00    -0.192 NA
ATOM      2  C   UNL     1      -4.366   2.064  -2.767  1.00  0.00    +0.099 C 
ATOM      3  C   UNL     1      -4.535   1.145  -1.680  1.00  0.00    +0.053 A 
ATOM      4  C   UNL     1      -5.813   0.688  -1.345  1.00  0.00    +0.021 A 
ATOM      5  C   UNL     1      -6.007  -0.209  -0.289  1.00  0.00    +0.028 A 
ATOM      6  C   UNL     1      -4.875  -0.631   0.417  1.00  0.00    +0.049 A 
ATOM      7  N   UNL     1      -4.765  -1.490   1.484  1.00  0.00    -0.325 N 
ATOM      8  C   UNL     1      -3.461  -1.602   1.885  1.00  0.00    +0.199 A 
ATOM      9  C   UNL     1      -2.688  -0.839   1.027  1.00  0.00    +0.069 A 
ATOM     10  C   UNL     1      -3.584  -0.196   0.112  1.00  0.00    +0.014 A 
ATOM     11  C   UNL     1      -3.415   0.707  -0.959  1.00  0.00    +0.030 A 
ATOM     12  H   UNL     1      -5.535  -1.951   1.944  1.00  0.00    +0.170 HD
ENDROOT
BRANCH   9  13
ATOM     13  C   UNL     1      -1.240  -0.731   1.093  1.00  0.00    +0.076 A 
ATOM     14  C   UNL     1      -0.435  -1.864   1.163  1.00  0.00    +0.029 A 
ATOM     15  N   UNL     1      -0.740   0.525   1.061  1.00  0.00    -0.256 NA
ATOM     16  C   UNL     1       0.948  -1.700   1.214  1.00  0.00    +0.009 A 
ATOM     17  C   UNL     1       0.607   0.653   1.109  1.00  0.00    +0.116 A 
ATOM     18  C   UNL     1       1.494  -0.415   1.186  1.00  0.00    -0.016 A 
BRANCH  18  19
ATOM     19  C   UNL     1       2.983  -0.184   1.251  1.00  0.00    +0.121 C 
BRANCH  19  20
ATOM     20  N   UNL     1       3.501   0.577   0.105  1.00  0.00    -0.294 NA
ATOM     21  C   UNL     1       4.903   0.983   0.351  1.00  0.00    +0.113 C 
ATOM     22  C   UNL     1       3.451  -0.211  -1.148  1.00  0.00    +0.113 C 
ATOM     23  C   UNL     1       5.493   1.726  -0.857  1.00  0.00    +0.175 C 
ATOM     24  C   UNL     1       4.078   0.559  -2.321  1.00  0.00    +0.175 C 
ATOM     25  O   UNL     1       5.437   0.915  -2.037  1.00  0.00    -0.379 OA
ENDBRANCH  19  20
ENDBRANCH  18  19
ENDBRANCH   9  13
BRANCH   8  26
ATOM     26  O   UNL     1      -3.183  -2.346   2.950  1.00  0.00    -0.494 OA
ATOM     27  H   UNL     1      -2.267  -2.145   3.217  1.00  0.00    +0.295 HD
ENDBRANCH   8  26
TORSDOF 4
