REMARK SMILES Cc1nc(Nc2ccc(C#N)c(F)c2)c(C(F)(F)F)n1C
REMARK SMILES IDX 1 1 2 2 3 3 4 4 15 5 20 6 21 7 5 8 6 10 7 11 14 12 8 13
REMARK SMILES IDX 12 14 9 15 10 16 11 17 13 18 16 19 17 20 18 21 19 22
REMARK H PARENT 5 9
ROOT
ATOM      1  C   UNL     1      -2.595   2.159  -1.199  1.00  0.00    +0.088 C 
ATOM      2  C   UNL     1      -2.030   0.968  -0.494  1.00  0.00    +0.108 A 
ATOM      3  N   UNL     1      -0.705   0.805  -0.309  1.00  0.00    -0.216 NA
ATOM      4  C   UNL     1      -0.605  -0.385   0.317  1.00  0.00    +0.161 A 
ATOM      5  C   UNL     1      -1.862  -0.938   0.494  1.00  0.00    +0.167 A 
ATOM      6  N   UNL     1      -2.762  -0.077  -0.033  1.00  0.00    -0.326 N 
ATOM      7  C   UNL     1      -4.210  -0.261  -0.158  1.00  0.00    +0.151 C 
ENDROOT
BRANCH   4   8
ATOM      8  N   UNL     1       0.645  -1.034   0.603  1.00  0.00    -0.338 N 
ATOM      9  H   UNL     1       0.632  -2.053   0.834  1.00  0.00    +0.168 HD
BRANCH   8  10
ATOM     10  C   UNL     1       1.922  -0.424   0.361  1.00  0.00    +0.043 A 
ATOM     11  C   UNL     1       2.969  -1.203  -0.152  1.00  0.00    +0.027 A 
ATOM     12  C   UNL     1       2.152   0.935   0.644  1.00  0.00    +0.066 A 
ATOM     13  C   UNL     1       4.211  -0.625  -0.422  1.00  0.00    +0.025 A 
ATOM     14  C   UNL     1       3.397   1.512   0.373  1.00  0.00    +0.143 A 
ATOM     15  C   UNL     1       4.427   0.735  -0.171  1.00  0.00    +0.088 A 
ATOM     16  C   UNL     1       5.705   1.326  -0.473  1.00  0.00    +0.102 C 
ATOM     17  N   UNL     1       6.731   1.802  -0.718  1.00  0.00    -0.192 NA
ATOM     18  F   UNL     1       3.593   2.829   0.636  1.00  0.00    -0.205 F 
ENDBRANCH   8  10
ENDBRANCH   4   8
BRANCH   5  19
ATOM     19  C   UNL     1      -2.146  -2.317   1.042  1.00  0.00    +0.435 C 
ATOM     20  F   UNL     1      -3.490  -2.507   1.298  1.00  0.00    -0.164 F 
ATOM     21  F   UNL     1      -1.455  -2.497   2.227  1.00  0.00    -0.164 F 
ATOM     22  F   UNL     1      -1.730  -3.265   0.125  1.00  0.00    -0.164 F 
ENDBRANCH   5  19
TORSDOF 3
