REMARK SMILES C[N+](C)=c1ccc2nc3ccc(N)cc3sc-2c1
REMARK SMILES IDX 1 1 2 2 3 3 4 4 5 5 6 6 7 7 8 8 9 9 10 10 11 11 12 12 14 13
REMARK SMILES IDX 15 14 16 15 17 16 18 17 13 18
REMARK H PARENT 13 19 13 20
ROOT
ATOM      1  C   UNL     1       5.081   0.868  -0.323  1.00  0.00    +0.433 C 
ATOM      2  N   UNL     1       3.949  -0.100  -0.494  1.00  0.00    -0.235 N 
ATOM      3  C   UNL     1       4.367  -1.498  -0.842  1.00  0.00    +0.433 C 
ATOM      4  C   UNL     1       2.700   0.246  -0.347  1.00  0.00    +0.201 C 
ATOM      5  C   UNL     1       2.296   1.604   0.115  1.00  0.00    +0.081 C 
ATOM      6  C   UNL     1       1.013   1.928   0.297  1.00  0.00    +0.036 C 
ATOM      7  C   UNL     1      -0.109   0.987   0.060  1.00  0.00    +0.081 C 
ATOM      8  N   UNL     1      -1.289   1.441   0.322  1.00  0.00    -0.246 NA
ATOM      9  C   UNL     1      -2.432   0.648   0.153  1.00  0.00    +0.081 A 
ATOM     10  C   UNL     1      -3.651   1.220   0.533  1.00  0.00    +0.032 A 
ATOM     11  C   UNL     1      -4.850   0.515   0.410  1.00  0.00    +0.028 A 
ATOM     12  C   UNL     1      -4.864  -0.763  -0.140  1.00  0.00    +0.033 A 
ATOM     13  C   UNL     1      -3.644  -1.358  -0.470  1.00  0.00    +0.046 A 
ATOM     14  C   UNL     1      -2.430  -0.659  -0.346  1.00  0.00    +0.055 A 
ATOM     15  S   UNL     1      -0.945  -1.508  -0.829  1.00  0.00    -0.132 SA
ATOM     16  C   UNL     1       0.279  -0.355  -0.448  1.00  0.00    +0.060 C 
ATOM     17  C   UNL     1       1.567  -0.686  -0.631  1.00  0.00    +0.100 C 
ENDROOT
BRANCH  12  18
ATOM     18  N   UNL     1      -6.042  -1.515  -0.148  1.00  0.00    -0.399 N 
ATOM     19  H   UNL     1      -6.057  -2.276  -0.819  1.00  0.00    +0.156 HD
ATOM     20  H   UNL     1      -6.894  -0.962  -0.179  1.00  0.00    +0.156 HD
ENDBRANCH  12  18
TORSDOF 1
