REMARK SMILES CNc1ccc2nc3ccc(N(C)C)cc3[s+]c2c1
REMARK SMILES IDX 3 1 4 2 5 3 6 4 7 5 8 6 9 7 10 8 11 9 15 10 16 11 17 12
REMARK SMILES IDX 18 13 19 14 2 15 1 16 12 18 13 19 14 20
REMARK H PARENT 2 17
ROOT
ATOM      1  C   UNL     1       4.357  -0.318   0.420  1.00  0.00    +0.040 A 
ATOM      2  C   UNL     1       4.085  -1.433   1.229  1.00  0.00    +0.028 A 
ATOM      3  C   UNL     1       2.767  -1.827   1.483  1.00  0.00    +0.036 A 
ATOM      4  C   UNL     1       1.694  -1.116   0.934  1.00  0.00    +0.129 A 
ATOM      5  N   UNL     1       0.419  -1.533   1.205  1.00  0.00    -0.237 NA
ATOM      6  C   UNL     1      -0.761  -0.988   0.775  1.00  0.00    +0.129 A 
ATOM      7  C   UNL     1      -1.961  -1.579   1.176  1.00  0.00    +0.036 A 
ATOM      8  C   UNL     1      -3.189  -1.055   0.760  1.00  0.00    +0.028 A 
ATOM      9  C   UNL     1      -3.251   0.084  -0.075  1.00  0.00    +0.042 A 
ATOM     10  C   UNL     1      -2.033   0.677  -0.477  1.00  0.00    +0.100 A 
ATOM     11  C   UNL     1      -0.810   0.145  -0.056  1.00  0.00    +0.259 A 
ATOM     12  S   UNL     1       0.654   0.839  -0.525  1.00  0.00    +0.232 S 
ATOM     13  C   UNL     1       1.966   0.002   0.123  1.00  0.00    +0.259 A 
ATOM     14  C   UNL     1       3.282   0.401  -0.135  1.00  0.00    +0.099 A 
ENDROOT
BRANCH   1  15
ATOM     15  N   UNL     1       5.725   0.060   0.179  1.00  0.00    -0.388 N 
ATOM     16  C   UNL     1       6.114   1.199  -0.645  1.00  0.00    +0.139 C 
ATOM     17  H   UNL     1       6.490  -0.506   0.614  1.00  0.00    +0.160 HD
ENDBRANCH   1  15
BRANCH   9  18
ATOM     18  N   UNL     1      -4.531   0.629  -0.508  1.00  0.00    -0.377 N 
ATOM     19  C   UNL     1      -4.587   1.810  -1.382  1.00  0.00    +0.143 C 
ATOM     20  C   UNL     1      -5.793   0.010  -0.080  1.00  0.00    +0.143 C 
ENDBRANCH   9  18
TORSDOF 2
