REMARK SMILES O=c1cc(-c2ccccc2)oc2cc(O)c(O)c(O)c12
REMARK SMILES IDX 1 1 2 2 3 3 4 4 11 5 12 6 13 7 14 8 16 9 18 10 20 11 5 12
REMARK SMILES IDX 6 13 10 14 7 15 9 16 8 17 19 18 17 20 15 22
REMARK H PARENT 19 19 17 21 15 23
ROOT
ATOM      1  O   UNL     1      -1.350   3.093   0.247  1.00  0.00    -0.289 OA
ATOM      2  C   UNL     1      -0.892   1.922   0.156  1.00  0.00    +0.197 A 
ATOM      3  C   UNL     1       0.482   1.723   0.302  1.00  0.00    +0.100 A 
ATOM      4  C   UNL     1       1.011   0.422   0.205  1.00  0.00    +0.138 A 
ATOM      5  O   UNL     1       0.180  -0.593  -0.031  1.00  0.00    -0.456 OA
ATOM      6  C   UNL     1      -1.134  -0.452  -0.179  1.00  0.00    +0.146 A 
ATOM      7  C   UNL     1      -1.913  -1.581  -0.426  1.00  0.00    +0.098 A 
ATOM      8  C   UNL     1      -3.295  -1.477  -0.592  1.00  0.00    +0.165 A 
ATOM      9  C   UNL     1      -3.918  -0.210  -0.502  1.00  0.00    +0.201 A 
ATOM     10  C   UNL     1      -3.136   0.937  -0.251  1.00  0.00    +0.176 A 
ATOM     11  C   UNL     1      -1.735   0.821  -0.091  1.00  0.00    +0.111 A 
ENDROOT
BRANCH   4  12
ATOM     12  C   UNL     1       2.468   0.121   0.351  1.00  0.00    +0.017 A 
ATOM     13  C   UNL     1       3.433   1.115   0.635  1.00  0.00    +0.012 A 
ATOM     14  C   UNL     1       2.910  -1.212   0.203  1.00  0.00    +0.012 A 
ATOM     15  C   UNL     1       4.785   0.781   0.760  1.00  0.00    +0.001 A 
ATOM     16  C   UNL     1       4.263  -1.537   0.332  1.00  0.00    +0.001 A 
ATOM     17  C   UNL     1       5.200  -0.543   0.609  1.00  0.00    +0.000 A 
ENDBRANCH   4  12
BRANCH  10  18
ATOM     18  O   UNL     1      -3.750   2.190  -0.164  1.00  0.00    -0.504 OA
ATOM     19  H   UNL     1      -4.748   2.319  -0.273  1.00  0.00    +0.293 HD
ENDBRANCH  10  18
BRANCH   9  20
ATOM     20  O   UNL     1      -5.298  -0.051  -0.655  1.00  0.00    -0.502 OA
ATOM     21  H   UNL     1      -5.942  -0.806  -0.837  1.00  0.00    +0.293 HD
ENDBRANCH   9  20
BRANCH   8  22
ATOM     22  O   UNL     1      -4.006  -2.653  -0.844  1.00  0.00    -0.504 OA
ATOM     23  H   UNL     1      -5.004  -2.694  -0.993  1.00  0.00    +0.293 HD
ENDBRANCH   8  22
TORSDOF 4
