REMARK SMILES O=c1cc(-c2ccccc2)oc2cc(O)c(O)c(O)c12
REMARK SMILES IDX 1 1 2 2 3 3 4 4 11 5 12 6 13 7 14 8 16 9 18 10 20 11 5 12
REMARK SMILES IDX 6 13 10 14 7 15 9 16 8 17 19 18 17 20 15 22
REMARK H PARENT 19 19 17 21 15 23
ROOT
ATOM      1  O   UNL     1       1.498  -2.493  -1.389  1.00  0.00    -0.289 OA
ATOM      2  C   UNL     1       0.996  -1.553  -0.782  1.00  0.00    +0.197 C 
ATOM      3  C   UNL     1      -0.460  -1.393  -0.665  1.00  0.00    +0.100 C 
ATOM      4  C   UNL     1      -0.946  -0.347   0.019  1.00  0.00    +0.138 C 
ATOM      5  O   UNL     1      -0.160   0.625   0.621  1.00  0.00    -0.456 OA
ATOM      6  C   UNL     1       1.205   0.512   0.535  1.00  0.00    +0.146 A 
ATOM      7  C   UNL     1       1.965   1.503   1.161  1.00  0.00    +0.098 A 
ATOM      8  C   UNL     1       3.351   1.432   1.100  1.00  0.00    +0.165 A 
ATOM      9  C   UNL     1       3.979   0.389   0.427  1.00  0.00    +0.201 A 
ATOM     10  C   UNL     1       3.228  -0.601  -0.197  1.00  0.00    +0.176 A 
ATOM     11  C   UNL     1       1.834  -0.536  -0.141  1.00  0.00    +0.111 A 
ENDROOT
BRANCH   4  12
ATOM     12  C   UNL     1      -2.398  -0.124   0.164  1.00  0.00    +0.017 A 
ATOM     13  C   UNL     1      -3.276  -1.177   0.468  1.00  0.00    +0.012 A 
ATOM     14  C   UNL     1      -2.926   1.168   0.023  1.00  0.00    +0.012 A 
ATOM     15  C   UNL     1      -4.646  -0.944   0.611  1.00  0.00    +0.001 A 
ATOM     16  C   UNL     1      -4.297   1.400   0.165  1.00  0.00    +0.001 A 
ATOM     17  C   UNL     1      -5.156   0.343   0.457  1.00  0.00    +0.000 A 
ENDBRANCH   4  12
BRANCH  10  18
ATOM     18  O   UNL     1       3.920  -1.595  -0.840  1.00  0.00    -0.504 OA
ATOM     19  H   UNL     1       3.259  -2.214  -1.230  1.00  0.00    +0.293 HD
ENDBRANCH  10  18
BRANCH   9  20
ATOM     20  O   UNL     1       5.347   0.352   0.389  1.00  0.00    -0.502 OA
ATOM     21  H   UNL     1       5.554  -0.454  -0.128  1.00  0.00    +0.293 HD
ENDBRANCH   9  20
BRANCH   8  22
ATOM     22  O   UNL     1       4.098   2.398   1.709  1.00  0.00    -0.504 OA
ATOM     23  H   UNL     1       5.027   2.143   1.537  1.00  0.00    +0.293 HD
ENDBRANCH   8  22
TORSDOF 4
