REMARK SMILES O=c1cc(-c2ccccc2)oc2cc(O)c(O)c(O)c12
REMARK SMILES IDX 1 1 2 2 3 3 4 4 11 5 12 6 20 7 18 8 16 9 14 10 13 11 5 12
REMARK SMILES IDX 6 13 10 14 7 15 9 16 8 17 19 18 17 20 15 22
REMARK H PARENT 19 19 17 21 15 23
ROOT
ATOM      1  O   UNL     1       1.258  -2.349   1.881  1.00  0.00    -0.289 OA
ATOM      2  C   UNL     1       0.863  -1.412   1.140  1.00  0.00    +0.197 A 
ATOM      3  C   UNL     1      -0.511  -1.249   0.963  1.00  0.00    +0.100 A 
ATOM      4  C   UNL     1      -0.985  -0.263   0.087  1.00  0.00    +0.138 A 
ATOM      5  O   UNL     1      -0.114   0.504  -0.561  1.00  0.00    -0.456 OA
ATOM      6  C   UNL     1       1.203   0.395  -0.423  1.00  0.00    +0.146 A 
ATOM      7  C   UNL     1       1.767  -0.553   0.469  1.00  0.00    +0.111 A 
ATOM      8  C   UNL     1       3.187  -0.600   0.608  1.00  0.00    +0.176 A 
ATOM      9  C   UNL     1       3.994   0.225  -0.202  1.00  0.00    +0.201 A 
ATOM     10  C   UNL     1       3.409   1.136  -1.092  1.00  0.00    +0.165 A 
ATOM     11  C   UNL     1       2.023   1.229  -1.183  1.00  0.00    +0.098 A 
ENDROOT
BRANCH   4  12
ATOM     12  C   UNL     1      -2.436  -0.042  -0.137  1.00  0.00    +0.017 A 
ATOM     13  C   UNL     1      -3.376  -1.083   0.006  1.00  0.00    +0.012 A 
ATOM     14  C   UNL     1      -2.889   1.229  -0.534  1.00  0.00    +0.012 A 
ATOM     15  C   UNL     1      -4.735  -0.846  -0.222  1.00  0.00    +0.001 A 
ATOM     16  C   UNL     1      -4.249   1.461  -0.760  1.00  0.00    +0.001 A 
ATOM     17  C   UNL     1      -5.172   0.425  -0.602  1.00  0.00    +0.000 A 
ENDBRANCH   4  12
BRANCH   8  18
ATOM     18  O   UNL     1       3.839  -1.415   1.540  1.00  0.00    -0.504 OA
ATOM     19  H   UNL     1       3.409  -1.805   2.365  1.00  0.00    +0.293 HD
ENDBRANCH   8  18
BRANCH   9  20
ATOM     20  O   UNL     1       5.387   0.160  -0.116  1.00  0.00    -0.502 OA
ATOM     21  H   UNL     1       5.867  -0.478   0.506  1.00  0.00    +0.293 HD
ENDBRANCH   9  20
BRANCH  10  22
ATOM     22  O   UNL     1       4.193   1.968  -1.892  1.00  0.00    -0.504 OA
ATOM     23  H   UNL     1       5.205   1.944  -1.866  1.00  0.00    +0.293 HD
ENDBRANCH  10  22
TORSDOF 4
