REMARK SMILES C=C(c1ccc(C(=O)O)cc1)c1cc2c(cc1C)C(C)(C)CCC2(C)C
REMARK SMILES IDX 3 1 4 2 5 3 6 4 10 5 11 6 2 7 1 8 12 9 13 10 17 11 14 12
REMARK SMILES IDX 16 13 15 14 24 15 19 16 23 17 22 18 18 19 25 20 26 21 20 22
REMARK SMILES IDX 21 23 7 24 8 25 9 26
REMARK H PARENT 9 27
ROOT
ATOM      1  C   UNL     1       3.158  -0.889  -0.141  1.00  0.00    -0.018 A 
ATOM      2  C   UNL     1       3.062   0.120  -1.111  1.00  0.00    +0.009 A 
ATOM      3  C   UNL     1       4.201   0.802  -1.553  1.00  0.00    +0.016 A 
ATOM      4  C   UNL     1       5.456   0.490  -1.022  1.00  0.00    +0.059 A 
ATOM      5  C   UNL     1       5.562  -0.506  -0.045  1.00  0.00    +0.016 A 
ATOM      6  C   UNL     1       4.421  -1.186   0.394  1.00  0.00    +0.009 A 
ENDROOT
BRANCH   1   7
ATOM      7  C   UNL     1       1.930  -1.580   0.329  1.00  0.00    -0.018 C 
ATOM      8  C   UNL     1       1.944  -2.915   0.507  1.00  0.00    +0.018 C 
BRANCH   7   9
ATOM      9  C   UNL     1       0.641  -0.889   0.594  1.00  0.00    -0.015 A 
ATOM     10  C   UNL     1      -0.433  -1.100  -0.288  1.00  0.00    +0.013 A 
ATOM     11  C   UNL     1       0.469  -0.024   1.681  1.00  0.00    -0.043 A 
ATOM     12  C   UNL     1      -1.686  -0.469  -0.126  1.00  0.00    -0.038 A 
ATOM     13  C   UNL     1      -0.763   0.632   1.831  1.00  0.00    +0.008 A 
ATOM     14  C   UNL     1      -1.844   0.445   0.939  1.00  0.00    -0.038 A 
ATOM     15  C   UNL     1      -2.806  -0.763  -1.133  1.00  0.00    -0.010 C 
ATOM     16  C   UNL     1      -3.154   1.207   1.181  1.00  0.00    -0.010 C 
ATOM     17  C   UNL     1      -4.175  -0.260  -0.625  1.00  0.00    +0.012 C 
ATOM     18  C   UNL     1      -4.087   1.144  -0.050  1.00  0.00    +0.012 C 
ATOM     19  C   UNL     1       1.570   0.251   2.668  1.00  0.00    +0.045 C 
ATOM     20  C   UNL     1      -2.966  -2.281  -1.388  1.00  0.00    +0.016 C 
ATOM     21  C   UNL     1      -2.459  -0.080  -2.474  1.00  0.00    +0.016 C 
ATOM     22  C   UNL     1      -2.905   2.708   1.461  1.00  0.00    +0.016 C 
ATOM     23  C   UNL     1      -3.864   0.595   2.409  1.00  0.00    +0.016 C 
ENDBRANCH   7   9
ENDBRANCH   1   7
BRANCH   4  24
ATOM     24  C   UNL     1       6.692   1.185  -1.455  1.00  0.00    +0.335 C 
ATOM     25  O   UNL     1       7.814   0.972  -1.035  1.00  0.00    -0.246 OA
BRANCH  24  26
ATOM     26  O   UNL     1       6.465   2.117  -2.398  1.00  0.00    -0.478 OA
ATOM     27  H   UNL     1       7.354   2.485  -2.582  1.00  0.00    +0.297 HD
ENDBRANCH  24  26
ENDBRANCH   4  24
TORSDOF 4
