REMARK SMILES C=C(c1ccc(C(=O)O)cc1)c1cc2c(cc1C)C(C)(C)CCC2(C)C
REMARK SMILES IDX 3 1 4 2 5 3 6 4 10 5 11 6 2 7 1 8 12 9 13 10 17 11 14 12
REMARK SMILES IDX 16 13 15 14 24 15 19 16 23 17 22 18 18 19 25 20 26 21 20 22
REMARK SMILES IDX 21 23 7 24 8 25 9 26
REMARK H PARENT 9 27
ROOT
ATOM      1  C   UNL     1       3.076   0.065   1.208  1.00  0.00    -0.018 A 
ATOM      2  C   UNL     1       4.235  -0.524   1.737  1.00  0.00    +0.009 A 
ATOM      3  C   UNL     1       5.474  -0.357   1.108  1.00  0.00    +0.016 A 
ATOM      4  C   UNL     1       5.571   0.396  -0.067  1.00  0.00    +0.059 A 
ATOM      5  C   UNL     1       4.420   0.977  -0.610  1.00  0.00    +0.016 A 
ATOM      6  C   UNL     1       3.184   0.807   0.023  1.00  0.00    +0.009 A 
ENDROOT
BRANCH   1   7
ATOM      7  C   UNL     1       1.747  -0.121   1.844  1.00  0.00    -0.018 C 
ATOM      8  C   UNL     1       1.629  -0.017   3.182  1.00  0.00    +0.018 C 
BRANCH   7   9
ATOM      9  C   UNL     1       0.496  -0.389   1.087  1.00  0.00    -0.015 A 
ATOM     10  C   UNL     1      -0.474   0.623   1.004  1.00  0.00    +0.013 A 
ATOM     11  C   UNL     1       0.264  -1.609   0.442  1.00  0.00    -0.043 A 
ATOM     12  C   UNL     1      -1.682   0.464   0.289  1.00  0.00    -0.038 A 
ATOM     13  C   UNL     1      -0.919  -1.765  -0.299  1.00  0.00    +0.008 A 
ATOM     14  C   UNL     1      -1.894  -0.746  -0.407  1.00  0.00    -0.038 A 
ATOM     15  C   UNL     1      -2.690   1.620   0.258  1.00  0.00    -0.010 C 
ATOM     16  C   UNL     1      -3.157  -1.006  -1.240  1.00  0.00    -0.010 C 
ATOM     17  C   UNL     1      -4.065   1.162  -0.276  1.00  0.00    +0.012 C 
ATOM     18  C   UNL     1      -3.933   0.301  -1.521  1.00  0.00    +0.012 C 
ATOM     19  C   UNL     1       1.254  -2.741   0.485  1.00  0.00    +0.045 C 
ATOM     20  C   UNL     1      -2.942   2.202   1.670  1.00  0.00    +0.016 C 
ATOM     21  C   UNL     1      -2.126   2.745  -0.637  1.00  0.00    +0.016 C 
ATOM     22  C   UNL     1      -2.821  -1.618  -2.621  1.00  0.00    +0.016 C 
ATOM     23  C   UNL     1      -4.059  -1.999  -0.475  1.00  0.00    +0.016 C 
ENDBRANCH   7   9
ENDBRANCH   1   7
BRANCH   4  24
ATOM     24  C   UNL     1       6.903   0.544  -0.700  1.00  0.00    +0.335 C 
ATOM     25  O   UNL     1       7.944   0.064  -0.291  1.00  0.00    -0.246 OA
BRANCH  24  26
ATOM     26  O   UNL     1       6.871   1.289  -1.819  1.00  0.00    -0.478 OA
ATOM     27  H   UNL     1       7.804   1.300  -2.120  1.00  0.00    +0.297 HD
ENDBRANCH  24  26
ENDBRANCH   4  24
TORSDOF 4
