REMARK SMILES C=C(c1ccc(C(=O)O)cc1)c1cc2c(cc1C)C(C)(C)CCC2(C)C
REMARK SMILES IDX 3 1 4 2 5 3 6 4 10 5 11 6 2 7 1 8 12 9 19 10 22 11 15 12
REMARK SMILES IDX 23 13 16 14 14 15 24 16 17 17 13 18 20 19 21 20 25 21 26 22
REMARK SMILES IDX 18 23 7 24 8 25 9 26
REMARK H PARENT 9 27
ROOT
ATOM      1  C   UNL     1       3.129  -0.887   0.175  1.00  0.00    -0.018 A 
ATOM      2  C   UNL     1       4.347  -0.926   0.870  1.00  0.00    +0.009 A 
ATOM      3  C   UNL     1       5.432  -0.165   0.431  1.00  0.00    +0.016 A 
ATOM      4  C   UNL     1       5.317   0.664  -0.699  1.00  0.00    +0.059 A 
ATOM      5  C   UNL     1       4.104   0.694  -1.393  1.00  0.00    +0.016 A 
ATOM      6  C   UNL     1       3.019  -0.069  -0.962  1.00  0.00    +0.009 A 
ENDROOT
BRANCH   1   7
ATOM      7  C   UNL     1       1.940  -1.610   0.691  1.00  0.00    -0.018 C 
ATOM      8  C   UNL     1       2.029  -2.872   1.117  1.00  0.00    +0.018 C 
BRANCH   7   9
ATOM      9  C   UNL     1       0.628  -0.929   0.677  1.00  0.00    -0.015 A 
ATOM     10  C   UNL     1      -3.089   1.350   0.247  1.00  0.00    -0.010 C 
ATOM     11  C   UNL     1      -4.144   0.737  -0.729  1.00  0.00    +0.012 C 
ATOM     12  C   UNL     1      -1.813   0.488   0.397  1.00  0.00    -0.038 A 
ATOM     13  C   UNL     1      -3.509  -0.082  -1.841  1.00  0.00    +0.012 C 
ATOM     14  C   UNL     1      -0.799   0.934   1.272  1.00  0.00    +0.008 A 
ATOM     15  C   UNL     1      -1.596  -0.707  -0.355  1.00  0.00    -0.038 A 
ATOM     16  C   UNL     1      -2.695  -1.264  -1.269  1.00  0.00    -0.010 C 
ATOM     17  C   UNL     1       0.412   0.248   1.413  1.00  0.00    -0.043 A 
ATOM     18  C   UNL     1      -0.391  -1.420  -0.157  1.00  0.00    +0.013 A 
ATOM     19  C   UNL     1      -2.693   2.751  -0.271  1.00  0.00    +0.016 C 
ATOM     20  C   UNL     1      -3.779   1.508   1.616  1.00  0.00    +0.016 C 
ATOM     21  C   UNL     1      -2.130  -2.051  -2.473  1.00  0.00    +0.016 C 
ATOM     22  C   UNL     1      -3.592  -2.216  -0.440  1.00  0.00    +0.016 C 
ATOM     23  C   UNL     1       1.451   0.787   2.362  1.00  0.00    +0.045 C 
ENDBRANCH   7   9
ENDBRANCH   1   7
BRANCH   4  24
ATOM     24  C   UNL     1       6.443   1.522  -1.135  1.00  0.00    +0.335 C 
ATOM     25  O   UNL     1       7.540   1.502  -0.515  1.00  0.00    -0.246 OA
BRANCH  24  26
ATOM     26  O   UNL     1       6.290   2.390  -2.206  1.00  0.00    -0.478 OA
ATOM     27  H   UNL     1       7.050   2.992  -2.510  1.00  0.00    +0.297 HD
ENDBRANCH  24  26
ENDBRANCH   4  24
TORSDOF 4
