REMARK SMILES C=C(c1ccc(C(=O)O)cc1)c1cc2c(cc1C)C(C)(C)CCC2(C)C
REMARK SMILES IDX 3 1 4 2 5 3 6 4 10 5 11 6 2 7 1 8 12 9 13 10 17 11 14 12
REMARK SMILES IDX 16 13 15 14 24 15 19 16 23 17 22 18 18 19 25 20 26 21 20 22
REMARK SMILES IDX 21 23 7 24 8 25 9 26
REMARK H PARENT 9 27
ROOT
ATOM      1  C   UNL     1       3.006  -1.329  -0.032  1.00  0.00    -0.018 A 
ATOM      2  C   UNL     1       4.164  -1.725  -0.718  1.00  0.00    +0.009 A 
ATOM      3  C   UNL     1       5.401  -1.157  -0.412  1.00  0.00    +0.016 A 
ATOM      4  C   UNL     1       5.505  -0.171   0.591  1.00  0.00    +0.059 A 
ATOM      5  C   UNL     1       4.351   0.208   1.290  1.00  0.00    +0.016 A 
ATOM      6  C   UNL     1       3.113  -0.361   0.980  1.00  0.00    +0.009 A 
ENDROOT
BRANCH   1   7
ATOM      7  C   UNL     1       1.676  -1.859  -0.425  1.00  0.00    -0.018 C 
ATOM      8  C   UNL     1       1.518  -3.158  -0.699  1.00  0.00    +0.018 C 
BRANCH   7   9
ATOM      9  C   UNL     1       0.509  -0.943  -0.508  1.00  0.00    -0.015 A 
ATOM     10  C   UNL     1      -0.663  -1.271   0.191  1.00  0.00    +0.013 A 
ATOM     11  C   UNL     1       0.551   0.247  -1.262  1.00  0.00    -0.043 A 
ATOM     12  C   UNL     1      -1.808  -0.447   0.156  1.00  0.00    -0.038 A 
ATOM     13  C   UNL     1      -0.542   1.122  -1.219  1.00  0.00    +0.008 A 
ATOM     14  C   UNL     1      -1.713   0.816  -0.496  1.00  0.00    -0.038 A 
ATOM     15  C   UNL     1      -3.074  -0.892   0.903  1.00  0.00    -0.010 C 
ATOM     16  C   UNL     1      -2.861   1.839  -0.489  1.00  0.00    -0.010 C 
ATOM     17  C   UNL     1      -4.291  -0.045   0.470  1.00  0.00    +0.012 C 
ATOM     18  C   UNL     1      -3.988   1.448   0.505  1.00  0.00    +0.012 C 
ATOM     19  C   UNL     1       1.753   0.626  -2.093  1.00  0.00    +0.045 C 
ATOM     20  C   UNL     1      -2.854  -0.771   2.431  1.00  0.00    +0.016 C 
ATOM     21  C   UNL     1      -3.418  -2.367   0.578  1.00  0.00    +0.016 C 
ATOM     22  C   UNL     1      -3.450   1.946  -1.916  1.00  0.00    +0.016 C 
ATOM     23  C   UNL     1      -2.345   3.235  -0.054  1.00  0.00    +0.016 C 
ENDBRANCH   7   9
ENDBRANCH   1   7
BRANCH   4  24
ATOM     24  C   UNL     1       6.807   0.461   0.896  1.00  0.00    +0.335 C 
ATOM     25  O   UNL     1       7.858   0.058   0.329  1.00  0.00    -0.246 OA
BRANCH  24  26
ATOM     26  O   UNL     1       6.883   1.520   1.789  1.00  0.00    -0.478 OA
ATOM     27  H   UNL     1       7.774   1.960   2.004  1.00  0.00    +0.297 HD
ENDBRANCH  24  26
ENDBRANCH   4  24
TORSDOF 4
