REMARK SMILES Nc1cc2cc(N=Nc3ccc(-c4ccc(N=Nc5ccc6cc(S(=O)(=O)O)cc(N)c6c5)cc4)cc3)ccc2cc1S(=O)(=O)O
REMARK SMILES IDX 16 1 15 2 14 3 13 4 35 5 34 6 17 7 18 8 19 9 24 10 23 11
REMARK SMILES IDX 29 12 22 13 30 14 21 15 32 16 20 17 33 18 25 19 26 20 27 21
REMARK SMILES IDX 28 22 31 24 12 27 11 28 36 29 10 30 37 31 9 32 8 33 7 34
REMARK SMILES IDX 6 35 38 36 5 37 39 38 4 39 40 40 3 41 41 42 2 43 42 44 1 45
REMARK SMILES IDX 43 48 44 49 45 50 46 51
REMARK H PARENT 28 23 31 25 31 26 1 46 1 47 46 52
ROOT
ATOM      1  C   UNL     1      -2.769  -1.782   0.880  1.00  0.00    +0.086 A 
ATOM      2  C   UNL     1      -1.833  -1.063   0.117  1.00  0.00    +0.031 A 
ATOM      3  C   UNL     1      -0.464  -1.337   0.242  1.00  0.00    +0.011 A 
ATOM      4  C   UNL     1      -0.011  -2.322   1.138  1.00  0.00    -0.018 A 
ATOM      5  C   UNL     1      -0.961  -3.057   1.871  1.00  0.00    +0.011 A 
ATOM      6  C   UNL     1      -2.324  -2.785   1.745  1.00  0.00    +0.031 A 
ENDROOT
BRANCH   1   7
ATOM      7  N   UNL     1      -4.174  -1.507   0.825  1.00  0.00    -0.151 NA
ATOM      8  N   UNL     1      -4.690  -0.661   0.026  1.00  0.00    -0.151 NA
BRANCH   8   9
ATOM      9  C   UNL     1      -6.098  -0.392   0.021  1.00  0.00    +0.086 A 
ATOM     10  C   UNL     1     -10.721   1.541  -0.770  1.00  0.00    +0.097 A 
ATOM     11  C   UNL     1     -10.198   0.574   0.091  1.00  0.00    +0.031 A 
ATOM     12  C   UNL     1      -9.891   2.164  -1.705  1.00  0.00    +0.049 A 
ATOM     13  C   UNL     1      -8.839   0.242   0.038  1.00  0.00    -0.015 A 
ATOM     14  C   UNL     1      -8.528   1.845  -1.791  1.00  0.00    +0.041 A 
ATOM     15  C   UNL     1      -8.327  -0.710   0.929  1.00  0.00    +0.011 A 
ATOM     16  C   UNL     1      -7.979   0.882  -0.897  1.00  0.00    +0.007 A 
ATOM     17  C   UNL     1      -6.971  -1.028   0.922  1.00  0.00    +0.031 A 
ATOM     18  C   UNL     1      -6.603   0.550  -0.883  1.00  0.00    +0.041 A 
BRANCH  10  19
ATOM     19  S   UNL     1     -12.418   2.000  -0.647  1.00  0.00    +0.294 S 
ATOM     20  O   UNL     1     -12.917   2.489  -1.976  1.00  0.00    -0.194 OA
ATOM     21  O   UNL     1     -13.231   0.805  -0.231  1.00  0.00    -0.194 OA
BRANCH  19  22
ATOM     22  O   UNL     1     -12.570   3.217   0.501  1.00  0.00    -0.282 OA
ATOM     23  H   UNL     1     -13.540   3.270   0.696  1.00  0.00    +0.234 HD
ENDBRANCH  19  22
ENDBRANCH  10  19
BRANCH  14  24
ATOM     24  N   UNL     1      -7.742   2.511  -2.796  1.00  0.00    -0.398 N 
ATOM     25  H   UNL     1      -6.749   2.277  -3.006  1.00  0.00    +0.156 HD
ATOM     26  H   UNL     1      -8.182   3.221  -3.417  1.00  0.00    +0.156 HD
ENDBRANCH  14  24
ENDBRANCH   8   9
ENDBRANCH   1   7
BRANCH   4  27
ATOM     27  C   UNL     1       1.441  -2.581   1.330  1.00  0.00    -0.018 A 
ATOM     28  C   UNL     1       1.940  -2.832   2.625  1.00  0.00    +0.011 A 
ATOM     29  C   UNL     1       2.333  -2.623   0.240  1.00  0.00    +0.011 A 
ATOM     30  C   UNL     1       3.282  -3.150   2.820  1.00  0.00    +0.031 A 
ATOM     31  C   UNL     1       3.682  -2.940   0.439  1.00  0.00    +0.031 A 
ATOM     32  C   UNL     1       4.160  -3.198   1.736  1.00  0.00    +0.086 A 
BRANCH  32  33
ATOM     33  N   UNL     1       5.499  -3.646   1.964  1.00  0.00    -0.151 NA
ATOM     34  N   UNL     1       6.586  -3.063   1.627  1.00  0.00    -0.151 NA
BRANCH  34  35
ATOM     35  C   UNL     1       6.781  -1.759   1.043  1.00  0.00    +0.086 A 
ATOM     36  C   UNL     1       5.850  -0.704   1.145  1.00  0.00    +0.031 A 
ATOM     37  C   UNL     1       8.039  -1.499   0.481  1.00  0.00    +0.039 A 
ATOM     38  C   UNL     1       6.152   0.557   0.626  1.00  0.00    +0.011 A 
ATOM     39  C   UNL     1       8.372  -0.220   0.012  1.00  0.00    -0.014 A 
ATOM     40  C   UNL     1       7.413   0.813   0.066  1.00  0.00    -0.017 A 
ATOM     41  C   UNL     1       9.663   0.054  -0.458  1.00  0.00    +0.035 A 
ATOM     42  C   UNL     1       7.745   2.095  -0.391  1.00  0.00    +0.033 A 
ATOM     43  C   UNL     1      10.013   1.349  -0.874  1.00  0.00    +0.053 A 
ATOM     44  C   UNL     1       9.038   2.374  -0.862  1.00  0.00    +0.117 A 
BRANCH  43  45
ATOM     45  N   UNL     1      11.373   1.599  -1.252  1.00  0.00    -0.398 N 
ATOM     46  H   UNL     1      11.751   2.561  -1.390  1.00  0.00    +0.156 HD
ATOM     47  H   UNL     1      12.068   0.819  -1.267  1.00  0.00    +0.156 HD
ENDBRANCH  43  45
BRANCH  44  48
ATOM     48  S   UNL     1       9.409   4.020  -1.381  1.00  0.00    +0.296 S 
ATOM     49  O   UNL     1      10.132   3.999  -2.697  1.00  0.00    -0.194 OA
ATOM     50  O   UNL     1      10.266   4.681  -0.339  1.00  0.00    -0.194 OA
BRANCH  48  51
ATOM     51  O   UNL     1       7.982   4.897  -1.578  1.00  0.00    -0.282 OA
ATOM     52  H   UNL     1       8.211   5.826  -1.306  1.00  0.00    +0.234 HD
ENDBRANCH  48  51
ENDBRANCH  44  48
ENDBRANCH  34  35
ENDBRANCH  32  33
ENDBRANCH   4  27
TORSDOF 11
