REMARK SMILES Nc1c(N=Nc2ccc(-c3ccc(N=Nc4cc(S(=O)(=O)O)c5ccccc5c4N)cc3)cc2)cc(S(=O)(=O)O)c2ccccc12
REMARK SMILES IDX 6 1 7 2 8 3 9 4 33 5 34 6 5 7 4 8 3 9 2 10 46 11 35 12 45 13
REMARK SMILES IDX 41 14 36 15 44 16 42 17 43 18 1 19 37 22 38 23 39 24 40 25
REMARK SMILES IDX 10 27 11 28 32 29 12 30 31 31 13 32 14 33 15 34 16 35 17 36
REMARK SMILES IDX 29 37 18 38 28 39 23 40 27 41 24 42 26 43 25 44 30 45 19 48
REMARK SMILES IDX 20 49 21 50 22 51
REMARK H PARENT 1 20 1 21 40 26 30 46 30 47 22 52
ROOT
ATOM      1  C   UNL     1       3.231  -1.314   0.849  1.00  0.00    +0.086 A 
ATOM      2  C   UNL     1       2.479  -1.786  -0.230  1.00  0.00    +0.031 A 
ATOM      3  C   UNL     1       1.166  -1.347  -0.435  1.00  0.00    +0.011 A 
ATOM      4  C   UNL     1       0.565  -0.429   0.441  1.00  0.00    -0.018 A 
ATOM      5  C   UNL     1       1.321   0.031   1.531  1.00  0.00    +0.011 A 
ATOM      6  C   UNL     1       2.634  -0.410   1.735  1.00  0.00    +0.031 A 
ENDROOT
BRANCH   1   7
ATOM      7  N   UNL     1       4.539  -1.803   1.030  1.00  0.00    -0.151 NA
ATOM      8  N   UNL     1       5.354  -0.868   1.195  1.00  0.00    -0.148 NA
BRANCH   8   9
ATOM      9  C   UNL     1       6.661  -1.379   1.347  1.00  0.00    +0.111 A 
ATOM     10  C   UNL     1       7.619  -1.181   0.326  1.00  0.00    +0.067 A 
ATOM     11  C   UNL     1       8.964  -1.619   0.507  1.00  0.00    +0.008 A 
ATOM     12  C   UNL     1       7.015  -2.066   2.505  1.00  0.00    +0.056 A 
ATOM     13  C   UNL     1       9.973  -1.357  -0.451  1.00  0.00    +0.011 A 
ATOM     14  C   UNL     1       9.320  -2.342   1.681  1.00  0.00    +0.005 A 
ATOM     15  C   UNL     1       8.317  -2.550   2.665  1.00  0.00    +0.104 A 
ATOM     16  C   UNL     1      11.282  -1.811  -0.297  1.00  0.00    +0.001 A 
ATOM     17  C   UNL     1      10.658  -2.800   1.801  1.00  0.00    +0.010 A 
ATOM     18  C   UNL     1      11.623  -2.541   0.827  1.00  0.00    +0.001 A 
BRANCH  10  19
ATOM     19  N   UNL     1       7.247  -0.396  -0.803  1.00  0.00    -0.396 N 
ATOM     20  H   UNL     1       7.667  -0.722  -1.667  1.00  0.00    +0.156 HD
ATOM     21  H   UNL     1       6.232  -0.330  -0.880  1.00  0.00    +0.156 HD
ENDBRANCH  10  19
BRANCH  15  22
ATOM     22  S   UNL     1       8.687  -3.420   4.168  1.00  0.00    +0.295 S 
ATOM     23  O   UNL     1       8.874  -4.814   3.839  1.00  0.00    -0.194 OA
ATOM     24  O   UNL     1       9.683  -2.663   4.894  1.00  0.00    -0.194 OA
BRANCH  22  25
ATOM     25  O   UNL     1       7.360  -3.326   5.082  1.00  0.00    -0.282 OA
ATOM     26  H   UNL     1       7.653  -3.167   6.005  1.00  0.00    +0.234 HD
ENDBRANCH  22  25
ENDBRANCH  15  22
ENDBRANCH   8   9
ENDBRANCH   1   7
BRANCH   4  27
ATOM     27  C   UNL     1      -0.816   0.035   0.225  1.00  0.00    -0.018 A 
ATOM     28  C   UNL     1      -1.119   1.404   0.169  1.00  0.00    +0.011 A 
ATOM     29  C   UNL     1      -1.870  -0.879   0.071  1.00  0.00    +0.011 A 
ATOM     30  C   UNL     1      -2.432   1.844  -0.039  1.00  0.00    +0.031 A 
ATOM     31  C   UNL     1      -3.183  -0.438  -0.135  1.00  0.00    +0.031 A 
ATOM     32  C   UNL     1      -3.475   0.929  -0.205  1.00  0.00    +0.086 A 
BRANCH  32  33
ATOM     33  N   UNL     1      -4.784   1.415  -0.385  1.00  0.00    -0.151 NA
ATOM     34  N   UNL     1      -5.320   0.901  -1.392  1.00  0.00    -0.148 NA
BRANCH  34  35
ATOM     35  C   UNL     1      -6.624   1.413  -1.567  1.00  0.00    +0.111 A 
ATOM     36  C   UNL     1      -7.640   1.060  -0.682  1.00  0.00    +0.056 A 
ATOM     37  C   UNL     1      -6.904   2.278  -2.650  1.00  0.00    +0.067 A 
ATOM     38  C   UNL     1      -8.935   1.554  -0.867  1.00  0.00    +0.104 A 
ATOM     39  C   UNL     1      -8.236   2.727  -2.886  1.00  0.00    +0.008 A 
ATOM     40  C   UNL     1      -9.271   2.382  -1.970  1.00  0.00    +0.005 A 
ATOM     41  C   UNL     1      -8.574   3.509  -4.016  1.00  0.00    +0.011 A 
ATOM     42  C   UNL     1     -10.578   2.872  -2.227  1.00  0.00    +0.010 A 
ATOM     43  C   UNL     1      -9.870   3.972  -4.241  1.00  0.00    +0.001 A 
ATOM     44  C   UNL     1     -10.872   3.658  -3.341  1.00  0.00    +0.001 A 
BRANCH  37  45
ATOM     45  N   UNL     1      -5.861   2.547  -3.583  1.00  0.00    -0.396 N 
ATOM     46  H   UNL     1      -5.891   3.491  -3.951  1.00  0.00    +0.156 HD
ATOM     47  H   UNL     1      -4.949   2.326  -3.183  1.00  0.00    +0.156 HD
ENDBRANCH  37  45
BRANCH  38  48
ATOM     48  S   UNL     1     -10.162   1.095   0.332  1.00  0.00    +0.295 S 
ATOM     49  O   UNL     1     -10.637   2.302   0.972  1.00  0.00    -0.194 OA
ATOM     50  O   UNL     1     -11.062   0.151  -0.291  1.00  0.00    -0.194 OA
BRANCH  48  51
ATOM     51  O   UNL     1      -9.377   0.302   1.498  1.00  0.00    -0.282 OA
ATOM     52  H   UNL     1      -9.716   0.636   2.356  1.00  0.00    +0.234 HD
ENDBRANCH  48  51
ENDBRANCH  38  48
ENDBRANCH  34  35
ENDBRANCH  32  33
ENDBRANCH   4  27
TORSDOF 11
