REMARK SMILES COc1cc(/C=C/C(=O)CC(=O)/C=C/c2ccc(O)c(OC)c2)ccc1O
REMARK SMILES IDX 10 1 8 2 9 3 7 4 6 5 5 6 3 7 4 8 26 9 25 10 24 11 2 12 1 13
REMARK SMILES IDX 27 14 11 16 12 17 13 18 14 19 15 20 16 21 23 22 17 23 20 24
REMARK SMILES IDX 18 25 21 26 22 27 19 28
REMARK H PARENT 27 15 19 29
ROOT
ATOM      1  C   UNL     1      -0.031   0.479  -1.721  1.00  0.00    +0.160 C 
ENDROOT
BRANCH   1   2
ATOM      2  C   UNL     1       0.589   1.605  -0.936  1.00  0.00    +0.163 C 
ATOM      3  O   UNL     1      -0.118   2.612  -0.667  1.00  0.00    -0.294 OA
BRANCH   2   4
ATOM      4  C   UNL     1       1.995   1.599  -0.474  1.00  0.00    +0.048 C 
ATOM      5  C   UNL     1       2.785   0.515  -0.502  1.00  0.00    +0.012 C 
BRANCH   5   6
ATOM      6  C   UNL     1       4.216   0.515  -0.098  1.00  0.00    -0.022 A 
ATOM      7  C   UNL     1       6.388  -0.612  -0.163  1.00  0.00    +0.161 A 
ATOM      8  C   UNL     1       5.021  -0.566  -0.497  1.00  0.00    +0.058 A 
ATOM      9  C   UNL     1       6.948   0.428   0.588  1.00  0.00    +0.157 A 
ATOM     10  C   UNL     1       6.148   1.496   1.012  1.00  0.00    +0.051 A 
ATOM     11  C   UNL     1       4.792   1.540   0.678  1.00  0.00    +0.012 A 
BRANCH   7  12
ATOM     12  O   UNL     1       7.220  -1.671  -0.561  1.00  0.00    -0.493 OA
ATOM     13  C   UNL     1       6.786  -2.800  -1.312  1.00  0.00    +0.278 C 
ENDBRANCH   7  12
BRANCH   9  14
ATOM     14  O   UNL     1       8.304   0.393   0.910  1.00  0.00    -0.504 OA
ATOM     15  H   UNL     1       8.742   1.134   1.444  1.00  0.00    +0.293 HD
ENDBRANCH   9  14
ENDBRANCH   5   6
ENDBRANCH   2   4
ENDBRANCH   1   2
BRANCH   1  16
ATOM     16  C   UNL     1      -0.703  -0.509  -0.805  1.00  0.00    +0.163 C 
ATOM     17  O   UNL     1      -0.029  -1.482  -0.375  1.00  0.00    -0.294 OA
BRANCH  16  18
ATOM     18  C   UNL     1      -2.120  -0.402  -0.384  1.00  0.00    +0.048 C 
ATOM     19  C   UNL     1      -2.893   0.669  -0.625  1.00  0.00    +0.012 C 
BRANCH  19  20
ATOM     20  C   UNL     1      -4.327   0.769  -0.248  1.00  0.00    -0.022 A 
ATOM     21  C   UNL     1      -5.108   1.756  -0.868  1.00  0.00    +0.012 A 
ATOM     22  C   UNL     1      -4.929  -0.068   0.715  1.00  0.00    +0.058 A 
ATOM     23  C   UNL     1      -6.462   1.891  -0.559  1.00  0.00    +0.051 A 
ATOM     24  C   UNL     1      -6.299   0.058   1.024  1.00  0.00    +0.161 A 
ATOM     25  C   UNL     1      -7.062   1.046   0.377  1.00  0.00    +0.157 A 
BRANCH  24  26
ATOM     26  O   UNL     1      -6.932  -0.773   1.962  1.00  0.00    -0.493 OA
ATOM     27  C   UNL     1      -6.288  -1.820   2.679  1.00  0.00    +0.278 C 
ENDBRANCH  24  26
BRANCH  25  28
ATOM     28  O   UNL     1      -8.420   1.206   0.653  1.00  0.00    -0.504 OA
ATOM     29  H   UNL     1      -8.911   0.615   1.310  1.00  0.00    +0.293 HD
ENDBRANCH  25  28
ENDBRANCH  19  20
ENDBRANCH  16  18
ENDBRANCH   1  16
TORSDOF 10
