REMARK SMILES COc1cc2c(cc1OC)C(=O)C(CC1CCN(Cc3ccccc3)CC1)C2
REMARK SMILES IDX 14 1 13 2 3 3 4 4 8 5 5 6 7 7 6 8 28 9 11 10 12 11 2 12 1 13
REMARK SMILES IDX 9 14 10 15 15 16 16 17 27 18 17 19 26 20 18 21 19 22 20 23
REMARK SMILES IDX 21 24 25 25 22 26 24 27 23 28
REMARK H PARENT
ROOT
ATOM      1  C   UNL     1      -0.333   2.371  -2.139  1.00  0.00    +0.016 C 
ENDROOT
BRANCH   1   2
ATOM      2  C   UNL     1      -1.805   2.290  -1.713  1.00  0.00    +0.066 C 
ATOM      3  C   UNL     1      -4.188  -0.127   1.615  1.00  0.00    +0.161 A 
ATOM      4  C   UNL     1      -3.434   1.045   1.443  1.00  0.00    +0.055 A 
ATOM      5  C   UNL     1      -4.407  -1.009   0.520  1.00  0.00    +0.161 A 
ATOM      6  C   UNL     1      -2.909   1.325   0.191  1.00  0.00    -0.033 A 
ATOM      7  C   UNL     1      -3.870  -0.714  -0.736  1.00  0.00    +0.062 A 
ATOM      8  C   UNL     1      -3.135   0.450  -0.862  1.00  0.00    +0.025 A 
ATOM      9  C   UNL     1      -2.074   2.503  -0.206  1.00  0.00    +0.048 C 
ATOM     10  C   UNL     1      -2.471   0.971  -2.049  1.00  0.00    +0.166 C 
ATOM     11  O   UNL     1      -2.480   0.411  -3.132  1.00  0.00    -0.294 OA
BRANCH   3  12
ATOM     12  O   UNL     1      -4.756  -0.508   2.807  1.00  0.00    -0.493 OA
ATOM     13  C   UNL     1      -4.547   0.326   3.937  1.00  0.00    +0.278 C 
ENDBRANCH   3  12
BRANCH   5  14
ATOM     14  O   UNL     1      -5.157  -2.128   0.794  1.00  0.00    -0.493 OA
ATOM     15  C   UNL     1      -5.413  -3.026  -0.277  1.00  0.00    +0.278 C 
ENDBRANCH   5  14
ENDBRANCH   1   2
BRANCH   1  16
ATOM     16  C   UNL     1       0.572   1.140  -1.903  1.00  0.00    -0.008 C 
ATOM     17  C   UNL     1       1.939   1.384  -2.566  1.00  0.00    +0.019 C 
ATOM     18  C   UNL     1       0.791   0.794  -0.427  1.00  0.00    +0.019 C 
ATOM     19  C   UNL     1       2.908   0.228  -2.319  1.00  0.00    +0.085 C 
ATOM     20  C   UNL     1       1.808  -0.338  -0.247  1.00  0.00    +0.085 C 
ATOM     21  N   UNL     1       3.093  -0.006  -0.880  1.00  0.00    -0.299 NA
BRANCH  21  22
ATOM     22  C   UNL     1       4.086  -1.077  -0.670  1.00  0.00    +0.120 C 
BRANCH  22  23
ATOM     23  C   UNL     1       4.545  -1.201   0.768  1.00  0.00    -0.034 A 
ATOM     24  C   UNL     1       4.433  -2.420   1.452  1.00  0.00    +0.005 A 
ATOM     25  C   UNL     1       5.112  -0.102   1.432  1.00  0.00    +0.005 A 
ATOM     26  C   UNL     1       4.872  -2.535   2.772  1.00  0.00    +0.000 A 
ATOM     27  C   UNL     1       5.550  -0.218   2.752  1.00  0.00    +0.000 A 
ATOM     28  C   UNL     1       5.430  -1.434   3.422  1.00  0.00    +0.000 A 
ENDBRANCH  22  23
ENDBRANCH  21  22
ENDBRANCH   1  16
TORSDOF 6
