REMARK SMILES COc1cc2c(cc1OC)C(=O)C(CC1CCN(Cc3ccccc3)CC1)C2
REMARK SMILES IDX 14 1 13 2 3 3 4 4 8 5 5 6 7 7 6 8 28 9 11 10 12 11 2 12 1 13
REMARK SMILES IDX 9 14 10 15 15 16 16 17 27 18 17 19 26 20 18 21 19 22 20 23
REMARK SMILES IDX 21 24 25 25 22 26 24 27 23 28
REMARK H PARENT
ROOT
ATOM      1  C   UNL     1      -0.286  -0.586   0.195  1.00  0.00    +0.016 C 
ENDROOT
BRANCH   1   2
ATOM      2  C   UNL     1      -1.460  -0.604  -0.794  1.00  0.00    +0.066 C 
ATOM      3  C   UNL     1      -6.010  -0.327   0.595  1.00  0.00    +0.161 A 
ATOM      4  C   UNL     1      -4.980  -1.261   0.402  1.00  0.00    +0.055 A 
ATOM      5  C   UNL     1      -5.797   1.049   0.302  1.00  0.00    +0.161 A 
ATOM      6  C   UNL     1      -3.755  -0.817  -0.072  1.00  0.00    -0.033 A 
ATOM      7  C   UNL     1      -4.558   1.479  -0.179  1.00  0.00    +0.062 A 
ATOM      8  C   UNL     1      -3.570   0.527  -0.351  1.00  0.00    +0.025 A 
ATOM      9  C   UNL     1      -2.538  -1.636  -0.367  1.00  0.00    +0.048 C 
ATOM     10  C   UNL     1      -2.208   0.718  -0.828  1.00  0.00    +0.166 C 
ATOM     11  O   UNL     1      -1.772   1.796  -1.193  1.00  0.00    -0.294 OA
BRANCH   3  12
ATOM     12  O   UNL     1      -7.263  -0.648   1.061  1.00  0.00    -0.493 OA
ATOM     13  C   UNL     1      -7.524  -2.008   1.376  1.00  0.00    +0.278 C 
ENDBRANCH   3  12
BRANCH   5  14
ATOM     14  O   UNL     1      -6.869   1.881   0.523  1.00  0.00    -0.493 OA
ATOM     15  C   UNL     1      -6.698   3.262   0.238  1.00  0.00    +0.278 C 
ENDBRANCH   5  14
ENDBRANCH   1   2
BRANCH   1  16
ATOM     16  C   UNL     1       0.881   0.357  -0.164  1.00  0.00    -0.008 C 
ATOM     17  C   UNL     1       1.975   0.263   0.913  1.00  0.00    +0.019 C 
ATOM     18  C   UNL     1       1.483   0.067  -1.547  1.00  0.00    +0.019 C 
ATOM     19  C   UNL     1       3.202   1.103   0.550  1.00  0.00    +0.085 C 
ATOM     20  C   UNL     1       2.731   0.916  -1.808  1.00  0.00    +0.085 C 
ATOM     21  N   UNL     1       3.766   0.798  -0.772  1.00  0.00    -0.299 NA
BRANCH  21  22
ATOM     22  C   UNL     1       4.458  -0.500  -0.834  1.00  0.00    +0.120 C 
BRANCH  22  23
ATOM     23  C   UNL     1       5.717  -0.554   0.008  1.00  0.00    -0.034 A 
ATOM     24  C   UNL     1       6.758   0.362  -0.208  1.00  0.00    +0.005 A 
ATOM     25  C   UNL     1       5.871  -1.531   1.002  1.00  0.00    +0.005 A 
ATOM     26  C   UNL     1       7.924   0.305   0.556  1.00  0.00    +0.000 A 
ATOM     27  C   UNL     1       7.039  -1.587   1.765  1.00  0.00    +0.000 A 
ATOM     28  C   UNL     1       8.064  -0.669   1.542  1.00  0.00    +0.000 A 
ENDBRANCH  22  23
ENDBRANCH  21  22
ENDBRANCH   1  16
TORSDOF 6
