REMARK SMILES COc1cc2c(cc1OC)C(=O)C(CC1CCN(Cc3ccccc3)CC1)C2
REMARK SMILES IDX 14 1 13 2 3 3 4 4 8 5 5 6 7 7 6 8 28 9 11 10 12 11 2 12 1 13
REMARK SMILES IDX 9 14 10 15 15 16 16 17 27 18 17 19 26 20 18 21 19 22 20 23
REMARK SMILES IDX 21 24 25 25 22 26 24 27 23 28
REMARK H PARENT
ROOT
ATOM      1  C   UNL     1      -0.178   0.460  -0.342  1.00  0.00    +0.016 C 
ENDROOT
BRANCH   1   2
ATOM      2  C   UNL     1      -1.359   1.169   0.334  1.00  0.00    +0.066 C 
ATOM      3  C   UNL     1      -5.846   0.759  -1.217  1.00  0.00    +0.161 A 
ATOM      4  C   UNL     1      -4.676   1.504  -1.436  1.00  0.00    +0.055 A 
ATOM      5  C   UNL     1      -5.882  -0.243  -0.207  1.00  0.00    +0.161 A 
ATOM      6  C   UNL     1      -3.561   1.242  -0.656  1.00  0.00    -0.033 A 
ATOM      7  C   UNL     1      -4.750  -0.492   0.573  1.00  0.00    +0.062 A 
ATOM      8  C   UNL     1      -3.619   0.263   0.322  1.00  0.00    +0.025 A 
ATOM      9  C   UNL     1      -2.231   1.924  -0.705  1.00  0.00    +0.048 C 
ATOM     10  C   UNL     1      -2.325   0.192   0.985  1.00  0.00    +0.166 C 
ATOM     11  O   UNL     1      -2.091  -0.552   1.921  1.00  0.00    -0.294 OA
BRANCH   3  12
ATOM     12  O   UNL     1      -7.011   0.928  -1.928  1.00  0.00    -0.493 OA
ATOM     13  C   UNL     1      -7.024   1.910  -2.953  1.00  0.00    +0.278 C 
ENDBRANCH   3  12
BRANCH   5  14
ATOM     14  O   UNL     1      -7.074  -0.914  -0.072  1.00  0.00    -0.493 OA
ATOM     15  C   UNL     1      -7.153  -1.919   0.929  1.00  0.00    +0.278 C 
ENDBRANCH   5  14
ENDBRANCH   1   2
BRANCH   1  16
ATOM     16  C   UNL     1       0.799  -0.270   0.604  1.00  0.00    -0.008 C 
ATOM     17  C   UNL     1       1.400   0.653   1.674  1.00  0.00    +0.019 C 
ATOM     18  C   UNL     1       1.924  -0.925  -0.216  1.00  0.00    +0.019 C 
ATOM     19  C   UNL     1       2.476  -0.064   2.497  1.00  0.00    +0.085 C 
ATOM     20  C   UNL     1       2.977  -1.576   0.686  1.00  0.00    +0.085 C 
ATOM     21  N   UNL     1       3.545  -0.668   1.692  1.00  0.00    -0.299 NA
BRANCH  21  22
ATOM     22  C   UNL     1       4.448   0.347   1.128  1.00  0.00    +0.120 C 
BRANCH  22  23
ATOM     23  C   UNL     1       5.722  -0.232   0.546  1.00  0.00    -0.034 A 
ATOM     24  C   UNL     1       6.583  -1.002   1.343  1.00  0.00    +0.005 A 
ATOM     25  C   UNL     1       6.072   0.009  -0.791  1.00  0.00    +0.005 A 
ATOM     26  C   UNL     1       7.763  -1.525   0.813  1.00  0.00    +0.000 A 
ATOM     27  C   UNL     1       7.253  -0.515  -1.319  1.00  0.00    +0.000 A 
ATOM     28  C   UNL     1       8.098  -1.281  -0.517  1.00  0.00    +0.000 A 
ENDBRANCH  22  23
ENDBRANCH  21  22
ENDBRANCH   1  16
TORSDOF 6
