REMARK SMILES COc1cc2c(cc1OC)C(=O)C(CC1CCN(Cc3ccccc3)CC1)C2
REMARK SMILES IDX 14 1 13 2 3 3 4 4 8 5 5 6 7 7 6 8 28 9 11 10 12 11 2 12 1 13
REMARK SMILES IDX 9 14 10 15 15 16 16 17 27 18 17 19 26 20 18 21 19 22 20 23
REMARK SMILES IDX 21 24 25 25 22 26 24 27 23 28
REMARK H PARENT
ROOT
ATOM      1  C   UNL     1      -0.550   0.809  -1.830  1.00  0.00    +0.016 C 
ENDROOT
BRANCH   1   2
ATOM      2  C   UNL     1      -1.271   0.850  -0.476  1.00  0.00    +0.066 C 
ATOM      3  C   UNL     1      -5.519  -0.657   1.060  1.00  0.00    +0.161 A 
ATOM      4  C   UNL     1      -4.206  -1.110   0.852  1.00  0.00    +0.055 A 
ATOM      5  C   UNL     1      -5.884   0.675   0.718  1.00  0.00    +0.161 A 
ATOM      6  C   UNL     1      -3.275  -0.234   0.314  1.00  0.00    -0.033 A 
ATOM      7  C   UNL     1      -4.934   1.543   0.174  1.00  0.00    +0.062 A 
ATOM      8  C   UNL     1      -3.652   1.058  -0.010  1.00  0.00    +0.025 A 
ATOM      9  C   UNL     1      -1.842  -0.512  -0.014  1.00  0.00    +0.048 C 
ATOM     10  C   UNL     1      -2.493   1.756  -0.546  1.00  0.00    +0.166 C 
ATOM     11  O   UNL     1      -2.531   2.903  -0.958  1.00  0.00    -0.294 OA
BRANCH   3  12
ATOM     12  O   UNL     1      -6.525  -1.432   1.586  1.00  0.00    -0.493 OA
ATOM     13  C   UNL     1      -6.204  -2.760   1.974  1.00  0.00    +0.278 C 
ENDBRANCH   3  12
BRANCH   5  14
ATOM     14  O   UNL     1      -7.193   1.017   0.958  1.00  0.00    -0.493 OA
ATOM     15  C   UNL     1      -7.597   2.340   0.631  1.00  0.00    +0.278 C 
ENDBRANCH   5  14
ENDBRANCH   1   2
BRANCH   1  16
ATOM     16  C   UNL     1       0.904   0.295  -1.840  1.00  0.00    -0.008 C 
ATOM     17  C   UNL     1       1.856   1.177  -1.022  1.00  0.00    +0.019 C 
ATOM     18  C   UNL     1       1.060  -1.163  -1.400  1.00  0.00    +0.019 C 
ATOM     19  C   UNL     1       3.296   0.659  -1.101  1.00  0.00    +0.085 C 
ATOM     20  C   UNL     1       2.524  -1.606  -1.480  1.00  0.00    +0.085 C 
ATOM     21  N   UNL     1       3.382  -0.743  -0.656  1.00  0.00    -0.299 NA
BRANCH  21  22
ATOM     22  C   UNL     1       4.773  -1.232  -0.696  1.00  0.00    +0.120 C 
BRANCH  22  23
ATOM     23  C   UNL     1       5.672  -0.586   0.338  1.00  0.00    -0.034 A 
ATOM     24  C   UNL     1       6.862   0.049  -0.046  1.00  0.00    +0.005 A 
ATOM     25  C   UNL     1       5.342  -0.636   1.701  1.00  0.00    +0.005 A 
ATOM     26  C   UNL     1       7.697   0.629   0.911  1.00  0.00    +0.000 A 
ATOM     27  C   UNL     1       6.177  -0.056   2.657  1.00  0.00    +0.000 A 
ATOM     28  C   UNL     1       7.354   0.577   2.261  1.00  0.00    +0.000 A 
ENDBRANCH  22  23
ENDBRANCH  21  22
ENDBRANCH   1  16
TORSDOF 6
