REMARK SMILES COc1cc2c(cc1OC)C(=O)C(CC1CCN(Cc3ccccc3)CC1)C2
REMARK SMILES IDX 14 1 13 2 3 3 4 4 8 5 5 6 7 7 6 8 28 9 11 10 12 11 2 12 1 13
REMARK SMILES IDX 9 14 10 15 15 16 16 17 27 18 17 19 26 20 18 21 19 22 20 23
REMARK SMILES IDX 21 24 25 25 22 26 24 27 23 28
REMARK H PARENT
ROOT
ATOM      1  C   UNL     1      -0.388  -1.494  -1.176  1.00  0.00    +0.016 C 
ENDROOT
BRANCH   1   2
ATOM      2  C   UNL     1      -1.276  -2.036  -0.030  1.00  0.00    +0.066 C 
ATOM      3  C   UNL     1      -5.561  -0.032  -0.220  1.00  0.00    +0.161 A 
ATOM      4  C   UNL     1      -4.833  -1.133  -0.696  1.00  0.00    +0.055 A 
ATOM      5  C   UNL     1      -5.049   0.743   0.865  1.00  0.00    +0.161 A 
ATOM      6  C   UNL     1      -3.567  -1.392  -0.174  1.00  0.00    -0.033 A 
ATOM      7  C   UNL     1      -3.733   0.502   1.325  1.00  0.00    +0.062 A 
ATOM      8  C   UNL     1      -3.013  -0.549   0.756  1.00  0.00    +0.025 A 
ATOM      9  C   UNL     1      -2.636  -2.476  -0.596  1.00  0.00    +0.048 C 
ATOM     10  C   UNL     1      -1.649  -0.953   0.942  1.00  0.00    +0.166 C 
ATOM     11  O   UNL     1      -0.890  -0.527   1.871  1.00  0.00    -0.294 OA
BRANCH   3  12
ATOM     12  O   UNL     1      -6.753   0.299  -0.899  1.00  0.00    -0.493 OA
ATOM     13  C   UNL     1      -7.319   1.613  -0.922  1.00  0.00    +0.278 C 
ENDBRANCH   3  12
BRANCH   5  14
ATOM     14  O   UNL     1      -5.860   1.718   1.466  1.00  0.00    -0.493 OA
ATOM     15  C   UNL     1      -5.411   2.648   2.437  1.00  0.00    +0.278 C 
ENDBRANCH   5  14
ENDBRANCH   1   2
BRANCH   1  16
ATOM     16  C   UNL     1       1.063  -1.179  -0.768  1.00  0.00    -0.008 C 
ATOM     17  C   UNL     1       1.848  -0.678  -1.981  1.00  0.00    +0.019 C 
ATOM     18  C   UNL     1       1.768  -2.423  -0.163  1.00  0.00    +0.019 C 
ATOM     19  C   UNL     1       3.303  -0.297  -1.615  1.00  0.00    +0.085 C 
ATOM     20  C   UNL     1       3.307  -2.420  -0.384  1.00  0.00    +0.085 C 
ATOM     21  N   UNL     1       3.890  -1.073  -0.500  1.00  0.00    -0.299 NA
BRANCH  21  22
ATOM     22  C   UNL     1       3.899  -0.347   0.799  1.00  0.00    +0.120 C 
BRANCH  22  23
ATOM     23  C   UNL     1       4.819   0.844   0.739  1.00  0.00    -0.034 A 
ATOM     24  C   UNL     1       4.316   2.147   0.657  1.00  0.00    +0.005 A 
ATOM     25  C   UNL     1       6.214   0.646   0.784  1.00  0.00    +0.005 A 
ATOM     26  C   UNL     1       5.187   3.241   0.551  1.00  0.00    +0.000 A 
ATOM     27  C   UNL     1       7.087   1.735   0.691  1.00  0.00    +0.000 A 
ATOM     28  C   UNL     1       6.561   3.034   0.578  1.00  0.00    +0.000 A 
ENDBRANCH  22  23
ENDBRANCH  21  22
ENDBRANCH   1  16
TORSDOF 6
