REMARK SMILES COc1cc2c(cc1OC)C(=O)C(CC1CCN(Cc3ccccc3)CC1)C2
REMARK SMILES IDX 14 1 13 2 3 3 4 4 8 5 5 6 7 7 6 8 28 9 11 10 12 11 2 12 1 13
REMARK SMILES IDX 9 14 10 15 15 16 16 17 27 18 17 19 26 20 18 21 19 22 20 23
REMARK SMILES IDX 21 24 25 25 22 26 24 27 23 28
REMARK H PARENT
ROOT
ATOM      1  C   UNL     1       0.030  -1.398   0.566  1.00  0.00    +0.016 C 
ENDROOT
BRANCH   1   2
ATOM      2  C   UNL     1       1.495  -1.461   0.108  1.00  0.00    +0.066 C 
ATOM      3  C   UNL     1       5.722   0.272   1.437  1.00  0.00    +0.161 A 
ATOM      4  C   UNL     1       4.808  -0.746   1.754  1.00  0.00    +0.055 A 
ATOM      5  C   UNL     1       5.407   1.237   0.440  1.00  0.00    +0.161 A 
ATOM      6  C   UNL     1       3.602  -0.797   1.071  1.00  0.00    -0.033 A 
ATOM      7  C   UNL     1       4.184   1.175  -0.234  1.00  0.00    +0.062 A 
ATOM      8  C   UNL     1       3.317   0.152   0.104  1.00  0.00    +0.025 A 
ATOM      9  C   UNL     1       2.471  -1.752   1.279  1.00  0.00    +0.048 C 
ATOM     10  C   UNL     1       2.003  -0.139  -0.452  1.00  0.00    +0.166 C 
ATOM     11  O   UNL     1       1.449   0.583  -1.263  1.00  0.00    -0.294 OA
BRANCH   3  12
ATOM     12  O   UNL     1       6.946   0.423   2.044  1.00  0.00    -0.493 OA
ATOM     13  C   UNL     1       7.320  -0.530   3.028  1.00  0.00    +0.278 C 
ENDBRANCH   3  12
BRANCH   5  14
ATOM     14  O   UNL     1       6.367   2.193   0.208  1.00  0.00    -0.493 OA
ATOM     15  C   UNL     1       6.089   3.178  -0.777  1.00  0.00    +0.278 C 
ENDBRANCH   5  14
ENDBRANCH   1   2
BRANCH   1  16
ATOM     16  C   UNL     1      -0.962  -2.063  -0.420  1.00  0.00    -0.008 C 
ATOM     17  C   UNL     1      -2.377  -2.119   0.180  1.00  0.00    +0.019 C 
ATOM     18  C   UNL     1      -1.044  -1.389  -1.795  1.00  0.00    +0.019 C 
ATOM     19  C   UNL     1      -3.083  -0.760   0.165  1.00  0.00    +0.085 C 
ATOM     20  C   UNL     1      -1.774  -0.045  -1.746  1.00  0.00    +0.085 C 
ATOM     21  N   UNL     1      -3.131  -0.200  -1.194  1.00  0.00    -0.299 NA
BRANCH  21  22
ATOM     22  C   UNL     1      -3.828   1.100  -1.217  1.00  0.00    +0.120 C 
BRANCH  22  23
ATOM     23  C   UNL     1      -5.312   0.998  -0.928  1.00  0.00    -0.034 A 
ATOM     24  C   UNL     1      -5.893   1.756   0.098  1.00  0.00    +0.005 A 
ATOM     25  C   UNL     1      -6.133   0.163  -1.700  1.00  0.00    +0.005 A 
ATOM     26  C   UNL     1      -7.264   1.673   0.351  1.00  0.00    +0.000 A 
ATOM     27  C   UNL     1      -7.503   0.080  -1.446  1.00  0.00    +0.000 A 
ATOM     28  C   UNL     1      -8.068   0.835  -0.421  1.00  0.00    +0.000 A 
ENDBRANCH  22  23
ENDBRANCH  21  22
ENDBRANCH   1  16
TORSDOF 6
