REMARK SMILES O=C(O[C@@H]1Cc2c(O)cc(O)cc2O[C@@H]1c1cc(O)c(O)c(O)c1)c1cc(O)c(O)c(O)c1
REMARK SMILES IDX 3 1 2 2 1 3 25 4 26 5 33 6 27 7 31 8 29 9 28 10 32 12 30 14
REMARK SMILES IDX 4 16 5 17 15 18 6 19 14 20 7 21 13 22 9 23 12 24 10 25 16 26
REMARK SMILES IDX 17 27 24 28 18 29 22 30 20 31 19 32 23 34 21 36 8 38 11 40
REMARK H PARENT 28 11 32 13 30 15 19 33 23 35 21 37 8 39 11 41
ROOT
ATOM      1  O   UNL     1      -1.126  -0.540  -0.505  1.00  0.00    -0.454 OA
ENDROOT
BRANCH   1   2
ATOM      2  C   UNL     1      -1.930   0.142  -1.353  1.00  0.00    +0.338 C 
ATOM      3  O   UNL     1      -1.693   0.373  -2.527  1.00  0.00    -0.246 OA
BRANCH   2   4
ATOM      4  C   UNL     1      -3.156   0.613  -0.656  1.00  0.00    +0.067 A 
ATOM      5  C   UNL     1      -4.038   1.444  -1.372  1.00  0.00    +0.066 A 
ATOM      6  C   UNL     1      -3.446   0.253   0.670  1.00  0.00    +0.066 A 
ATOM      7  C   UNL     1      -5.196   1.905  -0.756  1.00  0.00    +0.162 A 
ATOM      8  C   UNL     1      -4.611   0.724   1.261  1.00  0.00    +0.162 A 
ATOM      9  C   UNL     1      -5.481   1.544   0.555  1.00  0.00    +0.200 A 
BRANCH   7  10
ATOM     10  O   UNL     1      -6.087   2.716  -1.401  1.00  0.00    -0.504 OA
ATOM     11  H   UNL     1      -5.742   2.906  -2.292  1.00  0.00    +0.293 HD
ENDBRANCH   7  10
BRANCH   8  12
ATOM     12  O   UNL     1      -4.898   0.372   2.548  1.00  0.00    -0.504 OA
ATOM     13  H   UNL     1      -5.743   0.825   2.747  1.00  0.00    +0.293 HD
ENDBRANCH   8  12
BRANCH   9  14
ATOM     14  O   UNL     1      -6.620   1.991   1.168  1.00  0.00    -0.502 OA
ATOM     15  H   UNL     1      -7.057   2.546   0.490  1.00  0.00    +0.293 HD
ENDBRANCH   9  14
ENDBRANCH   2   4
ENDBRANCH   1   2
BRANCH   1  16
ATOM     16  C   UNL     1       0.114  -1.027  -1.058  1.00  0.00    +0.227 C 
ATOM     17  C   UNL     1       0.653  -2.100  -0.120  1.00  0.00    +0.093 C 
ATOM     18  C   UNL     1       1.175   0.075  -1.280  1.00  0.00    +0.245 C 
ATOM     19  C   UNL     1       2.020  -2.535  -0.557  1.00  0.00    +0.040 A 
ATOM     20  O   UNL     1       2.442  -0.434  -1.738  1.00  0.00    -0.481 OA
ATOM     21  C   UNL     1       2.542  -3.776  -0.168  1.00  0.00    +0.126 A 
ATOM     22  C   UNL     1       2.815  -1.687  -1.334  1.00  0.00    +0.131 A 
ATOM     23  C   UNL     1       3.815  -4.186  -0.565  1.00  0.00    +0.092 A 
ATOM     24  C   UNL     1       4.089  -2.089  -1.737  1.00  0.00    +0.093 A 
ATOM     25  C   UNL     1       4.578  -3.333  -1.354  1.00  0.00    +0.122 A 
BRANCH  18  26
ATOM     26  C   UNL     1       1.362   1.043  -0.112  1.00  0.00    +0.004 A 
ATOM     27  C   UNL     1       0.582   2.218  -0.067  1.00  0.00    +0.058 A 
ATOM     28  C   UNL     1       2.279   0.803   0.930  1.00  0.00    +0.058 A 
ATOM     29  C   UNL     1       0.708   3.105   0.995  1.00  0.00    +0.161 A 
ATOM     30  C   UNL     1       2.395   1.708   1.984  1.00  0.00    +0.161 A 
ATOM     31  C   UNL     1       1.609   2.851   2.017  1.00  0.00    +0.200 A 
BRANCH  29  32
ATOM     32  O   UNL     1      -0.064   4.230   1.023  1.00  0.00    -0.504 OA
ATOM     33  H   UNL     1       0.198   4.682   1.851  1.00  0.00    +0.293 HD
ENDBRANCH  29  32
BRANCH  30  34
ATOM     34  O   UNL     1       3.274   1.509   3.013  1.00  0.00    -0.504 OA
ATOM     35  H   UNL     1       3.768   0.691   2.831  1.00  0.00    +0.293 HD
ENDBRANCH  30  34
BRANCH  31  36
ATOM     36  O   UNL     1       1.715   3.742   3.051  1.00  0.00    -0.502 OA
ATOM     37  H   UNL     1       2.401   3.350   3.630  1.00  0.00    +0.293 HD
ENDBRANCH  31  36
ENDBRANCH  18  26
BRANCH  21  38
ATOM     38  O   UNL     1       1.773  -4.587   0.619  1.00  0.00    -0.507 OA
ATOM     39  H   UNL     1       2.244  -5.421   0.780  1.00  0.00    +0.293 HD
ENDBRANCH  21  38
BRANCH  25  40
ATOM     40  O   UNL     1       5.830  -3.677  -1.771  1.00  0.00    -0.508 OA
ATOM     41  H   UNL     1       6.031  -4.579  -1.471  1.00  0.00    +0.293 HD
ENDBRANCH  25  40
ENDBRANCH   1  16
TORSDOF 12
