REMARK SMILES O=C(O[C@@H]1Cc2c(O)cc(O)cc2O[C@@H]1c1cc(O)c(O)c(O)c1)c1cc(O)c(O)c(O)c1
REMARK SMILES IDX 3 1 2 2 1 3 25 4 26 5 33 6 27 7 31 8 29 9 28 10 32 12 30 14
REMARK SMILES IDX 4 16 5 17 15 18 6 19 14 20 7 21 13 22 9 23 12 24 10 25 16 26
REMARK SMILES IDX 17 27 24 28 18 29 22 30 20 31 19 32 23 34 21 36 8 38 11 40
REMARK H PARENT 28 11 32 13 30 15 19 33 23 35 21 37 8 39 11 41
ROOT
ATOM      1  O   UNL     1       0.552   0.075  -0.677  1.00  0.00    -0.454 OA
ENDROOT
BRANCH   1   2
ATOM      2  C   UNL     1       1.889  -0.042  -0.834  1.00  0.00    +0.338 C 
ATOM      3  O   UNL     1       2.465  -0.292  -1.880  1.00  0.00    -0.246 OA
BRANCH   2   4
ATOM      4  C   UNL     1       2.584   0.155   0.465  1.00  0.00    +0.067 A 
ATOM      5  C   UNL     1       3.980  -0.024   0.498  1.00  0.00    +0.066 A 
ATOM      6  C   UNL     1       1.889   0.494   1.637  1.00  0.00    +0.066 A 
ATOM      7  C   UNL     1       4.661   0.132   1.701  1.00  0.00    +0.162 A 
ATOM      8  C   UNL     1       2.591   0.637   2.826  1.00  0.00    +0.162 A 
ATOM      9  C   UNL     1       3.967   0.459   2.860  1.00  0.00    +0.200 A 
BRANCH   7  10
ATOM     10  O   UNL     1       6.015  -0.032   1.795  1.00  0.00    -0.504 OA
ATOM     11  H   UNL     1       6.360  -0.263   0.914  1.00  0.00    +0.293 HD
ENDBRANCH   7  10
BRANCH   8  12
ATOM     12  O   UNL     1       1.913   0.951   3.969  1.00  0.00    -0.504 OA
ATOM     13  H   UNL     1       2.605   1.015   4.658  1.00  0.00    +0.293 HD
ENDBRANCH   8  12
BRANCH   9  14
ATOM     14  O   UNL     1       4.628   0.610   4.049  1.00  0.00    -0.502 OA
ATOM     15  H   UNL     1       5.567   0.440   3.828  1.00  0.00    +0.293 HD
ENDBRANCH   9  14
ENDBRANCH   2   4
ENDBRANCH   1   2
BRANCH   1  16
ATOM     16  C   UNL     1      -0.265  -0.225  -1.835  1.00  0.00    +0.227 C 
ATOM     17  C   UNL     1      -0.332   0.994  -2.757  1.00  0.00    +0.093 C 
ATOM     18  C   UNL     1      -1.691  -0.575  -1.380  1.00  0.00    +0.245 C 
ATOM     19  C   UNL     1      -1.289   2.042  -2.251  1.00  0.00    +0.040 A 
ATOM     20  O   UNL     1      -2.298   0.497  -0.643  1.00  0.00    -0.481 OA
ATOM     21  C   UNL     1      -1.314   3.341  -2.781  1.00  0.00    +0.126 A 
ATOM     22  C   UNL     1      -2.203   1.729  -1.234  1.00  0.00    +0.131 A 
ATOM     23  C   UNL     1      -2.190   4.309  -2.290  1.00  0.00    +0.092 A 
ATOM     24  C   UNL     1      -3.074   2.697  -0.729  1.00  0.00    +0.093 A 
ATOM     25  C   UNL     1      -3.062   3.979  -1.261  1.00  0.00    +0.122 A 
BRANCH  18  26
ATOM     26  C   UNL     1      -1.704  -1.835  -0.523  1.00  0.00    +0.004 A 
ATOM     27  C   UNL     1      -1.523  -1.771   0.874  1.00  0.00    +0.058 A 
ATOM     28  C   UNL     1      -1.855  -3.092  -1.137  1.00  0.00    +0.058 A 
ATOM     29  C   UNL     1      -1.495  -2.940   1.628  1.00  0.00    +0.161 A 
ATOM     30  C   UNL     1      -1.828  -4.247  -0.365  1.00  0.00    +0.161 A 
ATOM     31  C   UNL     1      -1.650  -4.173   1.008  1.00  0.00    +0.200 A 
BRANCH  29  32
ATOM     32  O   UNL     1      -1.312  -2.925   2.982  1.00  0.00    -0.504 OA
ATOM     33  H   UNL     1      -1.201  -1.998   3.262  1.00  0.00    +0.293 HD
ENDBRANCH  29  32
BRANCH  30  34
ATOM     34  O   UNL     1      -1.975  -5.461  -0.972  1.00  0.00    -0.504 OA
ATOM     35  H   UNL     1      -1.930  -6.107  -0.238  1.00  0.00    +0.293 HD
ENDBRANCH  30  34
BRANCH  31  36
ATOM     36  O   UNL     1      -1.624  -5.329   1.741  1.00  0.00    -0.502 OA
ATOM     37  H   UNL     1      -1.494  -5.021   2.662  1.00  0.00    +0.293 HD
ENDBRANCH  31  36
ENDBRANCH  18  26
BRANCH  21  38
ATOM     38  O   UNL     1      -0.497   3.750  -3.799  1.00  0.00    -0.507 OA
ATOM     39  H   UNL     1       0.045   3.011  -4.112  1.00  0.00    +0.293 HD
ENDBRANCH  21  38
BRANCH  25  40
ATOM     40  O   UNL     1      -3.932   4.893  -0.745  1.00  0.00    -0.508 OA
ATOM     41  H   UNL     1      -3.803   5.738  -1.206  1.00  0.00    +0.293 HD
ENDBRANCH  25  40
ENDBRANCH   1  16
TORSDOF 12
