REMARK SMILES O=C(Oc1cc(O)cc(O)c1)[C@H]1Cc2c(O)cc(O)cc2O[C@@H]1c1cc(O)c(O)c(O)c1
REMARK SMILES IDX 1 1 2 2 3 3 4 4 5 5 11 6 6 7 9 8 8 9 7 10 10 12 12 14 23 15
REMARK SMILES IDX 13 16 22 17 14 18 21 19 15 20 20 21 17 22 18 23 24 24 25 25
REMARK SMILES IDX 32 26 26 27 30 28 28 29 27 30 31 32 29 34 16 36 19 38
REMARK H PARENT 7 11 10 13 27 31 31 33 29 35 16 37 19 39
ROOT
ATOM      1  O   UNL     1       1.088   0.367   1.521  1.00  0.00    -0.251 OA
ATOM      2  C   UNL     1       0.988  -0.129   0.362  1.00  0.00    +0.318 C 
ENDROOT
BRANCH   2   3
ATOM      3  O   UNL     1       2.046  -0.039  -0.549  1.00  0.00    -0.426 OA
BRANCH   3   4
ATOM      4  C   UNL     1       3.366   0.283  -0.218  1.00  0.00    +0.138 A 
ATOM      5  C   UNL     1       4.148   0.968  -1.155  1.00  0.00    +0.093 A 
ATOM      6  C   UNL     1       3.934  -0.088   1.015  1.00  0.00    +0.093 A 
ATOM      7  C   UNL     1       5.465   1.327  -0.852  1.00  0.00    +0.122 A 
ATOM      8  C   UNL     1       5.251   0.262   1.320  1.00  0.00    +0.122 A 
ATOM      9  C   UNL     1       6.013   0.976   0.388  1.00  0.00    +0.092 A 
BRANCH   7  10
ATOM     10  O   UNL     1       6.222   2.034  -1.783  1.00  0.00    -0.508 OA
ATOM     11  H   UNL     1       7.154   2.358  -1.556  1.00  0.00    +0.293 HD
ENDBRANCH   7  10
BRANCH   8  12
ATOM     12  O   UNL     1       5.794  -0.109   2.548  1.00  0.00    -0.508 OA
ATOM     13  H   UNL     1       6.730   0.152   2.826  1.00  0.00    +0.293 HD
ENDBRANCH   8  12
ENDBRANCH   3   4
ENDBRANCH   2   3
BRANCH   2  14
ATOM     14  C   UNL     1      -0.285  -0.812  -0.058  1.00  0.00    +0.150 C 
ATOM     15  C   UNL     1      -1.551  -0.099   0.472  1.00  0.00    +0.218 C 
ATOM     16  C   UNL     1      -0.272  -2.275   0.429  1.00  0.00    +0.063 C 
ATOM     17  O   UNL     1      -2.705  -0.797   0.006  1.00  0.00    -0.484 OA
ATOM     18  C   UNL     1      -1.598  -2.967   0.191  1.00  0.00    +0.037 A 
ATOM     19  C   UNL     1      -2.761  -2.194  -0.025  1.00  0.00    +0.130 A 
ATOM     20  C   UNL     1      -1.707  -4.372   0.233  1.00  0.00    +0.126 A 
ATOM     21  C   UNL     1      -3.985  -2.816  -0.282  1.00  0.00    +0.093 A 
ATOM     22  C   UNL     1      -2.936  -4.979  -0.040  1.00  0.00    +0.092 A 
ATOM     23  C   UNL     1      -4.071  -4.211  -0.299  1.00  0.00    +0.122 A 
BRANCH  15  24
ATOM     24  C   UNL     1      -1.699   1.370   0.101  1.00  0.00    +0.001 A 
ATOM     25  C   UNL     1      -1.048   1.963  -1.000  1.00  0.00    +0.058 A 
ATOM     26  C   UNL     1      -2.598   2.148   0.846  1.00  0.00    +0.058 A 
ATOM     27  C   UNL     1      -1.266   3.307  -1.322  1.00  0.00    +0.161 A 
ATOM     28  C   UNL     1      -2.836   3.489   0.536  1.00  0.00    +0.161 A 
ATOM     29  C   UNL     1      -2.152   4.085  -0.551  1.00  0.00    +0.200 A 
BRANCH  27  30
ATOM     30  O   UNL     1      -0.592   3.853  -2.416  1.00  0.00    -0.504 OA
ATOM     31  H   UNL     1      -0.748   4.803  -2.721  1.00  0.00    +0.293 HD
ENDBRANCH  27  30
BRANCH  28  32
ATOM     32  O   UNL     1      -3.760   4.183   1.327  1.00  0.00    -0.504 OA
ATOM     33  H   UNL     1      -4.038   5.141   1.162  1.00  0.00    +0.293 HD
ENDBRANCH  28  32
BRANCH  29  34
ATOM     34  O   UNL     1      -2.315   5.431  -0.881  1.00  0.00    -0.502 OA
ATOM     35  H   UNL     1      -2.906   6.075  -0.375  1.00  0.00    +0.293 HD
ENDBRANCH  29  34
ENDBRANCH  15  24
BRANCH  20  36
ATOM     36  O   UNL     1      -0.625  -5.191   0.563  1.00  0.00    -0.507 OA
ATOM     37  H   UNL     1       0.275  -4.830   0.836  1.00  0.00    +0.293 HD
ENDBRANCH  20  36
BRANCH  23  38
ATOM     38  O   UNL     1      -5.283  -4.844  -0.568  1.00  0.00    -0.508 OA
ATOM     39  H   UNL     1      -6.116  -4.323  -0.784  1.00  0.00    +0.293 HD
ENDBRANCH  23  38
ENDBRANCH   2  14
TORSDOF 11
