REMARK SMILES CCN(CC)c1ccc(/C=C/C=C(C#N)C#N)cc1
REMARK SMILES IDX 6 1 7 2 8 3 9 4 18 5 19 6 3 7 2 8 1 9 4 10 5 11 10 12 11 13
REMARK SMILES IDX 12 14 13 15 14 16 16 17 15 18 17 19
REMARK H PARENT
ROOT
ATOM      1  C   UNL     1      -1.466   0.028  -0.423  1.00  0.00    +0.037 A 
ATOM      2  C   UNL     1      -0.530   0.744   0.342  1.00  0.00    +0.026 A 
ATOM      3  C   UNL     1       0.807   0.342   0.394  1.00  0.00    +0.010 A 
ATOM      4  C   UNL     1       1.242  -0.784  -0.331  1.00  0.00    -0.026 A 
ATOM      5  C   UNL     1       0.305  -1.506  -1.085  1.00  0.00    +0.010 A 
ATOM      6  C   UNL     1      -1.032  -1.103  -1.136  1.00  0.00    +0.026 A 
ENDROOT
BRANCH   1   7
ATOM      7  N   UNL     1      -2.851   0.446  -0.468  1.00  0.00    -0.372 N 
BRANCH   7   8
ATOM      8  C   UNL     1      -3.939  -0.541  -0.369  1.00  0.00    +0.113 C 
ATOM      9  C   UNL     1      -3.905  -1.251   0.982  1.00  0.00    +0.027 C 
ENDBRANCH   7   8
BRANCH   7  10
ATOM     10  C   UNL     1      -3.190   1.869  -0.622  1.00  0.00    +0.113 C 
ATOM     11  C   UNL     1      -3.748   2.444   0.677  1.00  0.00    +0.027 C 
ENDBRANCH   7  10
ENDBRANCH   1   7
BRANCH   4  12
ATOM     12  C   UNL     1       2.647  -1.258  -0.300  1.00  0.00    +0.008 C 
ATOM     13  C   UNL     1       3.690  -0.477   0.009  1.00  0.00    +0.003 C 
BRANCH  13  14
ATOM     14  C   UNL     1       5.066  -1.021   0.007  1.00  0.00    +0.031 C 
ATOM     15  C   UNL     1       6.153  -0.283   0.278  1.00  0.00    +0.129 C 
ATOM     16  C   UNL     1       7.453  -0.900   0.256  1.00  0.00    +0.111 C 
ATOM     17  C   UNL     1       6.078   1.123   0.594  1.00  0.00    +0.111 C 
ATOM     18  N   UNL     1       8.499  -1.396   0.239  1.00  0.00    -0.192 NA
ATOM     19  N   UNL     1       6.018   2.250   0.847  1.00  0.00    -0.192 NA
ENDBRANCH  13  14
ENDBRANCH   4  12
TORSDOF 5
