REMARK SMILES CC(=C(C#N)C#N)c1ccc2cc(N(C)CCF)ccc2c1
REMARK SMILES IDX 14 1 15 2 13 3 8 4 9 5 22 6 10 7 21 8 11 9 20 10 12 11 19 12
REMARK SMILES IDX 2 13 3 14 4 15 6 16 5 17 7 18 1 19 16 20 17 21 18 22
REMARK H PARENT
ROOT
ATOM      1  N   UNL     1      -3.752  -0.421  -0.149  1.00  0.00    -0.372 N 
ATOM      2  C   UNL     1      -4.205  -0.476  -1.541  1.00  0.00    +0.143 C 
ENDROOT
BRANCH   1   3
ATOM      3  C   UNL     1      -2.376  -0.451   0.114  1.00  0.00    +0.037 A 
ATOM      4  C   UNL     1       2.735  -0.317  -0.001  1.00  0.00    -0.020 A 
ATOM      5  C   UNL     1       2.301  -0.036  -1.299  1.00  0.00    +0.009 A 
ATOM      6  C   UNL     1       1.790  -0.567   1.002  1.00  0.00    +0.017 A 
ATOM      7  C   UNL     1       0.936  -0.005  -1.590  1.00  0.00    +0.009 A 
ATOM      8  C   UNL     1       0.414  -0.536   0.718  1.00  0.00    -0.018 A 
ATOM      9  C   UNL     1      -0.021  -0.253  -0.593  1.00  0.00    -0.016 A 
ATOM     10  C   UNL     1      -0.544  -0.784   1.707  1.00  0.00    +0.011 A 
ATOM     11  C   UNL     1      -1.402  -0.224  -0.873  1.00  0.00    +0.034 A 
ATOM     12  C   UNL     1      -1.910  -0.744   1.404  1.00  0.00    +0.026 A 
BRANCH   4  13
ATOM     13  C   UNL     1       4.179  -0.344   0.311  1.00  0.00    -0.015 C 
ATOM     14  C   UNL     1       4.810   0.743   0.815  1.00  0.00    +0.133 C 
ATOM     15  C   UNL     1       6.204   0.716   1.113  1.00  0.00    +0.111 C 
ATOM     16  C   UNL     1       4.124   1.969   1.072  1.00  0.00    +0.111 C 
ATOM     17  N   UNL     1       7.339   0.678   1.351  1.00  0.00    -0.192 NA
ATOM     18  N   UNL     1       3.578   2.970   1.289  1.00  0.00    -0.192 NA
ATOM     19  C   UNL     1       4.826  -1.673   0.004  1.00  0.00    +0.047 C 
ENDBRANCH   4  13
ENDBRANCH   1   3
BRANCH   1  20
ATOM     20  C   UNL     1      -4.577   0.432   0.740  1.00  0.00    +0.150 C 
BRANCH  20  21
ATOM     21  C   UNL     1      -4.392   1.928   0.482  1.00  0.00    +0.236 C 
ATOM     22  F   UNL     1      -4.982   2.267  -0.699  1.00  0.00    -0.249 F 
ENDBRANCH  20  21
ENDBRANCH   1  20
TORSDOF 4
