REMARK SMILES O=c1c(O)c(-c2ccc(O)c(O)c2)oc2cc(O)ccc12
REMARK SMILES IDX 1 1 2 2 3 3 5 4 14 5 15 6 16 7 17 8 19 9 20 10 21 11 4 12
REMARK SMILES IDX 6 14 7 15 13 16 8 17 11 18 9 19 12 20 10 22 18 24
REMARK H PARENT 4 13 12 21 10 23 18 25
ROOT
ATOM      1  O   UNL     1      -2.113  -2.476   1.717  1.00  0.00    -0.285 OA
ATOM      2  C   UNL     1      -1.677  -1.558   1.029  1.00  0.00    +0.235 C 
ATOM      3  C   UNL     1      -0.212  -1.350   0.922  1.00  0.00    +0.208 C 
ATOM      4  C   UNL     1       0.245  -0.338   0.161  1.00  0.00    +0.180 C 
ATOM      5  O   UNL     1      -0.579   0.531  -0.547  1.00  0.00    -0.452 OA
ATOM      6  C   UNL     1      -1.938   0.371  -0.466  1.00  0.00    +0.142 A 
ATOM      7  C   UNL     1      -2.730   1.267  -1.182  1.00  0.00    +0.094 A 
ATOM      8  C   UNL     1      -4.116   1.145  -1.134  1.00  0.00    +0.119 A 
ATOM      9  C   UNL     1      -4.725   0.143  -0.382  1.00  0.00    +0.047 A 
ATOM     10  C   UNL     1      -3.931  -0.753   0.335  1.00  0.00    +0.020 A 
ATOM     11  C   UNL     1      -2.538  -0.632   0.288  1.00  0.00    +0.069 A 
ENDROOT
BRANCH   3  12
ATOM     12  O   UNL     1       0.595  -2.236   1.612  1.00  0.00    -0.502 OA
ATOM     13  H   UNL     1      -0.028  -2.872   2.026  1.00  0.00    +0.293 HD
ENDBRANCH   3  12
BRANCH   4  14
ATOM     14  C   UNL     1       1.684  -0.049  -0.030  1.00  0.00    +0.025 A 
ATOM     15  C   UNL     1       2.169   0.244  -1.320  1.00  0.00    +0.016 A 
ATOM     16  C   UNL     1       2.580  -0.020   1.052  1.00  0.00    +0.062 A 
ATOM     17  C   UNL     1       3.518   0.544  -1.531  1.00  0.00    +0.051 A 
ATOM     18  C   UNL     1       3.923   0.276   0.832  1.00  0.00    +0.158 A 
ATOM     19  C   UNL     1       4.383   0.556  -0.450  1.00  0.00    +0.157 A 
BRANCH  18  20
ATOM     20  O   UNL     1       4.832   0.304   1.854  1.00  0.00    -0.504 OA
ATOM     21  H   UNL     1       4.374   0.038   2.670  1.00  0.00    +0.293 HD
ENDBRANCH  18  20
BRANCH  19  22
ATOM     22  O   UNL     1       5.701   0.848  -0.653  1.00  0.00    -0.504 OA
ATOM     23  H   UNL     1       6.102   0.796   0.237  1.00  0.00    +0.293 HD
ENDBRANCH  19  22
ENDBRANCH   4  14
BRANCH   8  24
ATOM     24  O   UNL     1      -4.853   2.041  -1.849  1.00  0.00    -0.508 OA
ATOM     25  H   UNL     1      -5.797   1.844  -1.729  1.00  0.00    +0.293 HD
ENDBRANCH   8  24
TORSDOF 5
