REMARK SMILES O=c1c(O)c(-c2ccc(O)c(O)c2)oc2cc(O)ccc12
REMARK SMILES IDX 1 1 2 2 3 3 5 4 14 5 15 6 16 7 17 8 19 9 20 10 21 11 4 12
REMARK SMILES IDX 6 14 7 15 13 16 8 17 11 18 9 19 12 20 10 22 18 24
REMARK H PARENT 4 13 12 21 10 23 18 25
ROOT
ATOM      1  O   UNL     1      -2.136  -2.100   2.125  1.00  0.00    -0.285 OA
ATOM      2  C   UNL     1      -1.701  -1.266   1.283  1.00  0.00    +0.235 A 
ATOM      3  C   UNL     1      -0.318  -1.109   1.102  1.00  0.00    +0.208 A 
ATOM      4  C   UNL     1       0.141  -0.177   0.146  1.00  0.00    +0.180 A 
ATOM      5  O   UNL     1      -0.735   0.556  -0.537  1.00  0.00    -0.452 OA
ATOM      6  C   UNL     1      -2.050   0.443  -0.389  1.00  0.00    +0.142 A 
ATOM      7  C   UNL     1      -2.903   1.250  -1.152  1.00  0.00    +0.094 A 
ATOM      8  C   UNL     1      -4.293   1.138  -1.012  1.00  0.00    +0.119 A 
ATOM      9  C   UNL     1      -4.829   0.215  -0.109  1.00  0.00    +0.047 A 
ATOM     10  C   UNL     1      -3.986  -0.594   0.659  1.00  0.00    +0.020 A 
ATOM     11  C   UNL     1      -2.589  -0.485   0.527  1.00  0.00    +0.069 A 
ENDROOT
BRANCH   3  12
ATOM     12  O   UNL     1       0.591  -1.837   1.871  1.00  0.00    -0.502 OA
ATOM     13  H   UNL     1       0.295  -2.501   2.574  1.00  0.00    +0.293 HD
ENDBRANCH   3  12
BRANCH   4  14
ATOM     14  C   UNL     1       1.582   0.032  -0.120  1.00  0.00    +0.025 A 
ATOM     15  C   UNL     1       2.066   1.333  -0.317  1.00  0.00    +0.016 A 
ATOM     16  C   UNL     1       2.470  -1.051  -0.240  1.00  0.00    +0.062 A 
ATOM     17  C   UNL     1       3.418   1.551  -0.586  1.00  0.00    +0.051 A 
ATOM     18  C   UNL     1       3.827  -0.843  -0.516  1.00  0.00    +0.158 A 
ATOM     19  C   UNL     1       4.310   0.477  -0.679  1.00  0.00    +0.157 A 
BRANCH  18  20
ATOM     20  O   UNL     1       4.650  -1.966  -0.627  1.00  0.00    -0.504 OA
ATOM     21  H   UNL     1       5.632  -1.924  -0.858  1.00  0.00    +0.293 HD
ENDBRANCH  18  20
BRANCH  19  22
ATOM     22  O   UNL     1       5.653   0.764  -0.931  1.00  0.00    -0.504 OA
ATOM     23  H   UNL     1       6.380   0.065  -0.973  1.00  0.00    +0.293 HD
ENDBRANCH  19  22
ENDBRANCH   4  14
BRANCH   8  24
ATOM     24  O   UNL     1      -5.149   1.939  -1.765  1.00  0.00    -0.508 OA
ATOM     25  H   UNL     1      -4.792   2.626  -2.419  1.00  0.00    +0.293 HD
ENDBRANCH   8  24
TORSDOF 5
