REMARK SMILES O=c1c(O)c(-c2ccc(O)c(O)c2)oc2ccc(O)cc12
REMARK SMILES IDX 1 1 2 2 3 3 5 4 14 5 15 6 16 7 17 8 18 9 20 10 21 11 4 12
REMARK SMILES IDX 6 14 7 15 13 16 8 17 11 18 9 19 12 20 10 22 19 24
REMARK H PARENT 4 13 12 21 10 23 19 25
ROOT
ATOM      1  O   UNL     1       2.261  -0.461   2.724  1.00  0.00    -0.285 OA
ATOM      2  C   UNL     1       1.740  -0.305   1.585  1.00  0.00    +0.235 A 
ATOM      3  C   UNL     1       0.344  -0.231   1.456  1.00  0.00    +0.208 A 
ATOM      4  C   UNL     1      -0.212  -0.068   0.170  1.00  0.00    +0.180 A 
ATOM      5  O   UNL     1       0.588   0.043  -0.888  1.00  0.00    -0.452 OA
ATOM      6  C   UNL     1       1.913  -0.014  -0.808  1.00  0.00    +0.139 A 
ATOM      7  C   UNL     1       2.681   0.107  -1.970  1.00  0.00    +0.052 A 
ATOM      8  C   UNL     1       4.076   0.045  -1.900  1.00  0.00    +0.050 A 
ATOM      9  C   UNL     1       4.713  -0.138  -0.669  1.00  0.00    +0.116 A 
ATOM     10  C   UNL     1       3.951  -0.260   0.502  1.00  0.00    +0.062 A 
ATOM     11  C   UNL     1       2.546  -0.198   0.440  1.00  0.00    +0.072 A 
ENDROOT
BRANCH   3  12
ATOM     12  O   UNL     1      -0.480  -0.285   2.582  1.00  0.00    -0.502 OA
ATOM     13  H   UNL     1      -0.111  -0.390   3.520  1.00  0.00    +0.293 HD
ENDBRANCH   3  12
BRANCH   4  14
ATOM     14  C   UNL     1      -1.674   0.003  -0.050  1.00  0.00    +0.025 A 
ATOM     15  C   UNL     1      -2.556  -0.878   0.600  1.00  0.00    +0.016 A 
ATOM     16  C   UNL     1      -2.190   0.932  -0.968  1.00  0.00    +0.062 A 
ATOM     17  C   UNL     1      -3.931  -0.805   0.361  1.00  0.00    +0.051 A 
ATOM     18  C   UNL     1      -3.567   1.009  -1.209  1.00  0.00    +0.158 A 
ATOM     19  C   UNL     1      -4.443   0.139  -0.539  1.00  0.00    +0.157 A 
BRANCH  18  20
ATOM     20  O   UNL     1      -4.044   1.954  -2.116  1.00  0.00    -0.504 OA
ATOM     21  H   UNL     1      -5.031   2.050  -2.325  1.00  0.00    +0.293 HD
ENDBRANCH  18  20
BRANCH  19  22
ATOM     22  O   UNL     1      -5.816   0.212  -0.773  1.00  0.00    -0.504 OA
ATOM     23  H   UNL     1      -6.468  -0.403  -0.299  1.00  0.00    +0.293 HD
ENDBRANCH  19  22
ENDBRANCH   4  14
BRANCH   9  24
ATOM     24  O   UNL     1       6.104  -0.198  -0.619  1.00  0.00    -0.508 OA
ATOM     25  H   UNL     1       6.598  -0.331   0.256  1.00  0.00    +0.293 HD
ENDBRANCH   9  24
TORSDOF 5
