REMARK SMILES COc1ccc2c3c1O[C@H]1C[C@@H](O)C=C[C@@]31CCN(C)C2
REMARK SMILES IDX 3 1 4 2 5 3 6 4 7 5 8 6 9 7 10 8 11 9 12 10 14 11 15 12
REMARK SMILES IDX 16 13 2 14 1 15 21 16 19 17 20 18 18 19 17 21 13 23
REMARK H PARENT 13 24
REMARK Flexibility Score:    8.900
ROOT
ATOM      1  C   UNL     1      -0.120   2.587   1.025  1.00  0.00    +0.161 A 
ATOM      2  C   UNL     1       1.152   2.924   0.562  1.00  0.00    +0.051 A 
ATOM      3  C   UNL     1       1.946   1.976  -0.114  1.00  0.00    +0.009 A 
ATOM      4  C   UNL     1       1.494   0.666  -0.351  1.00  0.00    -0.026 A 
ATOM      5  C   UNL     1       0.228   0.345   0.119  1.00  0.00    +0.016 A 
ATOM      6  C   UNL     1      -0.547   1.287   0.798  1.00  0.00    +0.166 A 
ATOM      7  O   UNL     1      -1.771   0.796   1.195  1.00  0.00    -0.485 OA
ATOM      8  C   UNL     1      -1.593  -0.642   1.105  1.00  0.00    +0.191 C 
ATOM      9  C   UNL     1      -2.949  -1.306   0.862  1.00  0.00    +0.082 C 
ATOM     10  C   UNL     1      -3.518  -0.967  -0.516  1.00  0.00    +0.140 C 
ATOM     11  C   UNL     1      -2.499  -1.037  -1.606  1.00  0.00    +0.001 C 
ATOM     12  C   UNL     1      -1.174  -1.043  -1.391  1.00  0.00    -0.013 C 
ATOM     13  C   UNL     1      -0.539  -0.932  -0.012  1.00  0.00    +0.056 C 
ENDROOT
BRANCH   1  14
ATOM     14  O   UNL     1      -0.983   3.411   1.686  1.00  0.00    -0.493 OA
ATOM     15  C   UNL     1      -0.556   4.747   1.910  1.00  0.00    +0.278 C 
ENDBRANCH   1  14
BRANCH   4  16
ATOM     16  C   UNL     1       2.334  -0.305  -1.143  1.00  0.00    +0.120 C 
BRANCH  16  17
ATOM     17  N   UNL     1       2.592  -1.579  -0.450  1.00  0.00    -0.302 NA
ATOM     18  C   UNL     1       3.795  -2.203  -1.018  1.00  0.00    +0.105 C 
BRANCH  17  19
ATOM     19  C   UNL     1       1.464  -2.518  -0.557  1.00  0.00    +0.086 CG0
ATOM     20  G   UNL     1       0.277  -2.183   0.354  1.00  0.00    +0.000 G0
ENDBRANCH  17  19
ENDBRANCH  16  17
ENDBRANCH   4  16
BRANCH  13  21
ATOM     21  C   UNL     1       0.277  -2.183   0.354  1.00  0.00    +0.035 CG0
ATOM     22  G   UNL     1       1.464  -2.518  -0.557  1.00  0.00    +0.000 G0
ENDBRANCH  13  21
BRANCH  10  23
ATOM     23  O   UNL     1      -4.065   0.344  -0.528  1.00  0.00    -0.389 OA
ATOM     24  H   UNL     1      -3.385   0.938  -0.154  1.00  0.00    +0.211 HD
ENDBRANCH  10  23
TORSDOF 2
