REMARK SMILES COc1ccc2c3c1O[C@H]1[C@@H](O)C=C[C@H]4CC(C2)N(C)CC[C@@]341
REMARK SMILES IDX 18 1 17 2 19 4 20 5 21 6 6 8 7 9 5 10 23 11 8 12 4 13 10 14
REMARK SMILES IDX 15 15 3 16 9 17 11 18 14 19 13 20 22 21 16 23 2 25 1 26
REMARK SMILES IDX 12 27
REMARK H PARENT 12 28
REMARK Flexibility Score:   15.800
ROOT
ATOM      1  C   UNL     1      -0.828  -1.742  -1.275  1.00  0.00    +0.055 C 
ENDROOT
BRANCH   1   2
ATOM      2  C   UNL     1      -2.148  -1.295  -0.644  1.00  0.00    +0.061 CG1
ATOM      3  G   UNL     1      -2.487   0.175  -1.017  1.00  0.00    +0.000 G1
BRANCH   2   4
ATOM      4  N   UNL     1      -2.137  -1.645   0.808  1.00  0.00    -0.303 NA
ATOM      5  C   UNL     1      -2.949  -2.846   1.077  1.00  0.00    +0.105 C 
BRANCH   4   6
ATOM      6  C   UNL     1      -2.497  -0.559   1.735  1.00  0.00    +0.085 CG0
ATOM      7  G   UNL     1      -1.336   0.425   1.927  1.00  0.00    +0.000 G0
ENDBRANCH   4   6
ENDBRANCH   2   4
ENDBRANCH   1   2
BRANCH   1   8
ATOM      8  C   UNL     1       0.408  -1.316  -0.521  1.00  0.00    -0.039 A 
ATOM      9  C   UNL     1       0.499  -0.128   0.241  1.00  0.00    +0.012 A 
ATOM     10  C   UNL     1       1.590  -2.061  -0.728  1.00  0.00    +0.008 A 
ATOM     11  C   UNL     1      -0.563   0.888   0.651  1.00  0.00    +0.047 C 
ATOM     12  C   UNL     1       1.730   0.323   0.660  1.00  0.00    +0.165 A 
ATOM     13  C   UNL     1       2.821  -1.623  -0.219  1.00  0.00    +0.051 A 
ATOM     14  C   UNL     1       0.354   2.120   1.076  1.00  0.00    +0.217 C 
ATOM     15  C   UNL     1      -1.513   1.278  -0.522  1.00  0.00    +0.028 C 
ATOM     16  C   UNL     1       2.906  -0.398   0.468  1.00  0.00    +0.161 A 
ATOM     17  O   UNL     1       1.663   1.580   1.209  1.00  0.00    -0.482 OA
ATOM     18  C   UNL     1       0.364   3.293   0.052  1.00  0.00    +0.178 C 
ATOM     19  C   UNL     1      -0.687   1.863  -1.653  1.00  0.00    -0.024 C 
ATOM     20  C   UNL     1       0.225   2.802  -1.371  1.00  0.00    +0.004 C 
BRANCH  11  21
ATOM     21  C   UNL     1      -1.336   0.425   1.927  1.00  0.00    +0.032 CG0
ATOM     22  G   UNL     1      -2.497  -0.559   1.735  1.00  0.00    +0.000 G0
ENDBRANCH  11  21
BRANCH  15  23
ATOM     23  C   UNL     1      -2.487   0.175  -1.017  1.00  0.00    +0.028 CG1
ATOM     24  G   UNL     1      -2.148  -1.295  -0.644  1.00  0.00    +0.000 G1
ENDBRANCH  15  23
BRANCH  16  25
ATOM     25  O   UNL     1       4.116   0.131   0.936  1.00  0.00    -0.493 OA
ATOM     26  C   UNL     1       5.388  -0.470   0.722  1.00  0.00    +0.278 C 
ENDBRANCH  16  25
BRANCH  18  27
ATOM     27  O   UNL     1       1.504   4.104   0.206  1.00  0.00    -0.385 OA
ATOM     28  H   UNL     1       2.290   3.591  -0.123  1.00  0.00    +0.211 HD
ENDBRANCH  18  27
ENDBRANCH   1   8
TORSDOF 2
