REMARK SMILES COc1ccc2c3c1O[C@H]1C[C@@H](O)C=C[C@@]31CCN(C)C2
REMARK SMILES IDX 3 1 4 2 5 3 6 4 7 5 8 6 9 7 10 8 11 9 12 10 14 11 15 12
REMARK SMILES IDX 16 13 2 14 1 15 21 16 19 17 20 18 18 19 17 21 13 23
REMARK H PARENT 13 24
REMARK Flexibility Score:    8.900
ROOT
ATOM      1  C   UNL     1       2.590   0.851   0.711  1.00  0.00    +0.161 A 
ATOM      2  C   UNL     1       3.133  -0.433   0.716  1.00  0.00    +0.051 A 
ATOM      3  C   UNL     1       2.308  -1.565   0.552  1.00  0.00    +0.009 A 
ATOM      4  C   UNL     1       0.922  -1.450   0.336  1.00  0.00    -0.026 A 
ATOM      5  C   UNL     1       0.406  -0.160   0.291  1.00  0.00    +0.016 A 
ATOM      6  C   UNL     1       1.220   0.951   0.524  1.00  0.00    +0.166 A 
ATOM      7  O   UNL     1       0.512   2.133   0.583  1.00  0.00    -0.485 OA
ATOM      8  C   UNL     1      -0.856   1.678   0.777  1.00  0.00    +0.191 C 
ATOM      9  C   UNL     1      -1.824   2.748   0.269  1.00  0.00    +0.082 C 
ATOM     10  C   UNL     1      -1.713   2.952  -1.242  1.00  0.00    +0.140 C 
ATOM     11  C   UNL     1      -1.588   1.672  -2.001  1.00  0.00    +0.001 C 
ATOM     12  C   UNL     1      -1.287   0.494  -1.432  1.00  0.00    -0.013 C 
ATOM     13  C   UNL     1      -1.000   0.308   0.052  1.00  0.00    +0.056 C 
ENDROOT
BRANCH   1  14
ATOM     14  O   UNL     1       3.272   2.017   0.901  1.00  0.00    -0.493 OA
ATOM     15  C   UNL     1       4.685   1.926   1.010  1.00  0.00    +0.278 C 
ENDBRANCH   1  14
BRANCH   4  16
ATOM     16  C   UNL     1       0.071  -2.702   0.277  1.00  0.00    +0.120 C 
BRANCH  16  17
ATOM     17  N   UNL     1      -1.115  -2.598  -0.580  1.00  0.00    -0.302 NA
ATOM     18  C   UNL     1      -1.504  -3.914  -1.091  1.00  0.00    +0.105 C 
BRANCH  17  19
ATOM     19  C   UNL     1      -2.268  -1.958   0.072  1.00  0.00    +0.086 CG0
ATOM     20  G   UNL     1      -2.020  -0.602   0.753  1.00  0.00    +0.000 G0
ENDBRANCH  17  19
ENDBRANCH  16  17
ENDBRANCH   4  16
BRANCH  13  21
ATOM     21  C   UNL     1      -2.020  -0.602   0.753  1.00  0.00    +0.035 CG0
ATOM     22  G   UNL     1      -2.268  -1.958   0.072  1.00  0.00    +0.000 G0
ENDBRANCH  13  21
BRANCH  10  23
ATOM     23  O   UNL     1      -0.576   3.746  -1.556  1.00  0.00    -0.389 OA
ATOM     24  H   UNL     1       0.192   3.311  -1.134  1.00  0.00    +0.211 HD
ENDBRANCH  10  23
TORSDOF 2
