REMARK SMILES COc1ccc2c3c1O[C@H]1CC(=O)C=C[C@]31CCN(C)C2
REMARK SMILES IDX 3 1 4 2 5 3 6 4 7 5 8 6 9 7 10 8 11 9 12 10 13 11 14 12
REMARK SMILES IDX 15 13 16 14 2 15 1 16 21 17 19 18 20 19 18 20 17 22
REMARK H PARENT
REMARK Flexibility Score:    8.900
ROOT
ATOM      1  C   UNL     1       2.819  -0.234  -0.005  1.00  0.00    +0.161 A 
ATOM      2  C   UNL     1       2.982   1.065  -0.533  1.00  0.00    +0.051 A 
ATOM      3  C   UNL     1       1.865   1.796  -0.977  1.00  0.00    +0.009 A 
ATOM      4  C   UNL     1       0.578   1.220  -0.966  1.00  0.00    -0.026 A 
ATOM      5  C   UNL     1       0.459  -0.123  -0.594  1.00  0.00    +0.016 A 
ATOM      6  C   UNL     1       1.538  -0.784  -0.023  1.00  0.00    +0.166 A 
ATOM      7  O   UNL     1       1.158  -1.987   0.556  1.00  0.00    -0.484 OA
ATOM      8  C   UNL     1      -0.139  -2.257   0.059  1.00  0.00    +0.195 C 
ATOM      9  C   UNL     1      -1.074  -3.185   0.829  1.00  0.00    +0.126 C 
ATOM     10  C   UNL     1      -2.402  -3.198   0.077  1.00  0.00    +0.159 C 
ATOM     11  O   UNL     1      -3.270  -4.060   0.371  1.00  0.00    -0.295 OA
ATOM     12  C   UNL     1      -2.683  -2.213  -1.022  1.00  0.00    +0.044 C 
ATOM     13  C   UNL     1      -1.867  -1.158  -1.237  1.00  0.00    -0.008 C 
ATOM     14  C   UNL     1      -0.785  -0.874  -0.218  1.00  0.00    +0.056 C 
ENDROOT
BRANCH   1  15
ATOM     15  O   UNL     1       3.875  -0.976   0.542  1.00  0.00    -0.493 OA
ATOM     16  C   UNL     1       5.219  -0.516   0.618  1.00  0.00    +0.278 C 
ENDBRANCH   1  15
BRANCH   4  17
ATOM     17  C   UNL     1      -0.644   2.086  -1.045  1.00  0.00    +0.120 C 
BRANCH  17  18
ATOM     18  N   UNL     1      -1.195   2.263   0.319  1.00  0.00    -0.302 NA
ATOM     19  C   UNL     1      -1.892   3.557   0.415  1.00  0.00    +0.105 C 
BRANCH  18  20
ATOM     20  C   UNL     1      -2.125   1.169   0.694  1.00  0.00    +0.086 CG0
ATOM     21  G   UNL     1      -1.403  -0.161   1.027  1.00  0.00    +0.000 G0
ENDBRANCH  18  20
ENDBRANCH  17  18
ENDBRANCH   4  17
BRANCH  14  22
ATOM     22  C   UNL     1      -1.403  -0.161   1.027  1.00  0.00    +0.035 CG0
ATOM     23  G   UNL     1      -2.125   1.169   0.694  1.00  0.00    +0.000 G0
ENDBRANCH  14  22
TORSDOF 1
