REMARK SMILES COc1ccc2c3c1O[C@H]1C[C@@H](O)C=C[C@@]31CCN(C)C2
REMARK SMILES IDX 3 1 4 2 5 3 6 4 7 5 8 6 9 7 10 8 11 9 12 10 14 11 15 12
REMARK SMILES IDX 16 13 2 14 1 15 21 16 19 17 20 18 18 19 17 21 13 23
REMARK H PARENT 13 24
REMARK Flexibility Score:    8.900
ROOT
ATOM      1  C   UNL     1      -1.510  -2.032   1.188  1.00  0.00    +0.161 A 
ATOM      2  C   UNL     1      -2.704  -1.314   1.148  1.00  0.00    +0.051 A 
ATOM      3  C   UNL     1      -2.724   0.014   0.682  1.00  0.00    +0.009 A 
ATOM      4  C   UNL     1      -1.557   0.671   0.242  1.00  0.00    -0.026 A 
ATOM      5  C   UNL     1      -0.370  -0.052   0.307  1.00  0.00    +0.016 A 
ATOM      6  C   UNL     1      -0.363  -1.371   0.771  1.00  0.00    +0.166 A 
ATOM      7  O   UNL     1       0.883  -1.957   0.738  1.00  0.00    -0.485 OA
ATOM      8  C   UNL     1       1.779  -0.825   0.600  1.00  0.00    +0.191 C 
ATOM      9  C   UNL     1       3.059  -1.271  -0.107  1.00  0.00    +0.082 C 
ATOM     10  C   UNL     1       2.807  -1.664  -1.562  1.00  0.00    +0.140 C 
ATOM     11  C   UNL     1       1.912  -0.706  -2.278  1.00  0.00    +0.001 C 
ATOM     12  C   UNL     1       1.132   0.191  -1.655  1.00  0.00    -0.013 C 
ATOM     13  C   UNL     1       1.011   0.319  -0.140  1.00  0.00    +0.056 C 
ENDROOT
BRANCH   1  14
ATOM     14  O   UNL     1      -1.359  -3.322   1.606  1.00  0.00    -0.493 OA
ATOM     15  C   UNL     1      -2.538  -4.026   1.967  1.00  0.00    +0.278 C 
ENDBRANCH   1  14
BRANCH   4  16
ATOM     16  C   UNL     1      -1.696   2.082  -0.289  1.00  0.00    +0.120 C 
BRANCH  16  17
ATOM     17  N   UNL     1      -0.464   2.775  -0.714  1.00  0.00    -0.302 NA
ATOM     18  C   UNL     1      -0.805   4.115  -1.197  1.00  0.00    +0.105 C 
BRANCH  17  19
ATOM     19  C   UNL     1       0.510   2.848   0.376  1.00  0.00    +0.086 CG0
ATOM     20  G   UNL     1       1.519   1.693   0.350  1.00  0.00    +0.000 G0
ENDBRANCH  17  19
ENDBRANCH  16  17
ENDBRANCH   4  16
BRANCH  13  21
ATOM     21  C   UNL     1       1.519   1.693   0.350  1.00  0.00    +0.035 CG0
ATOM     22  G   UNL     1       0.510   2.848   0.376  1.00  0.00    +0.000 G0
ENDBRANCH  13  21
BRANCH  10  23
ATOM     23  O   UNL     1       2.210  -2.951  -1.642  1.00  0.00    -0.389 OA
ATOM     24  H   UNL     1       1.429  -2.935  -1.054  1.00  0.00    +0.211 HD
ENDBRANCH  10  23
TORSDOF 2
