REMARK SMILES COc1ccc2c3c1O[C@H]1C[C@@H](O)C=C[C@@]31CCN(C)C2
REMARK SMILES IDX 3 1 4 2 5 3 6 4 7 5 8 6 9 7 10 8 11 9 12 10 14 11 15 12
REMARK SMILES IDX 16 13 2 14 1 15 21 16 19 17 20 18 18 19 17 21 13 23
REMARK H PARENT 13 24
REMARK Flexibility Score:    8.900
ROOT
ATOM      1  C   UNL     1      -1.086   2.288   0.116  1.00  0.00    +0.161 A 
ATOM      2  C   UNL     1      -2.167   1.883   0.904  1.00  0.00    +0.051 A 
ATOM      3  C   UNL     1      -2.266   0.556   1.371  1.00  0.00    +0.009 A 
ATOM      4  C   UNL     1      -1.266  -0.383   1.090  1.00  0.00    -0.026 A 
ATOM      5  C   UNL     1      -0.171   0.048   0.355  1.00  0.00    +0.016 A 
ATOM      6  C   UNL     1      -0.117   1.337  -0.162  1.00  0.00    +0.166 A 
ATOM      7  O   UNL     1       0.965   1.530  -0.992  1.00  0.00    -0.485 OA
ATOM      8  C   UNL     1       1.395   0.169  -1.292  1.00  0.00    +0.191 C 
ATOM      9  C   UNL     1       2.887   0.183  -1.633  1.00  0.00    +0.082 C 
ATOM     10  C   UNL     1       3.746   0.585  -0.433  1.00  0.00    +0.140 C 
ATOM     11  C   UNL     1       3.310  -0.053   0.847  1.00  0.00    +0.001 C 
ATOM     12  C   UNL     1       2.119  -0.650   1.014  1.00  0.00    -0.013 C 
ATOM     13  C   UNL     1       1.044  -0.724  -0.063  1.00  0.00    +0.056 C 
ENDROOT
BRANCH   1  14
ATOM     14  O   UNL     1      -0.904   3.526  -0.428  1.00  0.00    -0.493 OA
ATOM     15  C   UNL     1      -1.863   4.522  -0.102  1.00  0.00    +0.278 C 
ENDBRANCH   1  14
BRANCH   4  16
ATOM     16  C   UNL     1      -1.374  -1.829   1.488  1.00  0.00    +0.120 C 
BRANCH  16  17
ATOM     17  N   UNL     1      -1.551  -2.759   0.361  1.00  0.00    -0.302 NA
ATOM     18  C   UNL     1      -2.943  -2.816  -0.083  1.00  0.00    +0.105 C 
BRANCH  17  19
ATOM     19  C   UNL     1      -0.651  -2.564  -0.792  1.00  0.00    +0.086 CG0
ATOM     20  G   UNL     1       0.802  -2.206  -0.440  1.00  0.00    +0.000 G0
ENDBRANCH  17  19
ENDBRANCH  16  17
ENDBRANCH   4  16
BRANCH  13  21
ATOM     21  C   UNL     1       0.802  -2.206  -0.440  1.00  0.00    +0.035 CG0
ATOM     22  G   UNL     1      -0.651  -2.564  -0.792  1.00  0.00    +0.000 G0
ENDBRANCH  13  21
BRANCH  10  23
ATOM     23  O   UNL     1       3.711   1.993  -0.239  1.00  0.00    -0.389 OA
ATOM     24  H   UNL     1       2.767   2.249  -0.208  1.00  0.00    +0.211 HD
ENDBRANCH  10  23
TORSDOF 2
