REMARK SMILES COc1ccc2c3c1O[C@H]1C[C@@H](O)C=C[C@@]31CCN(C)C2
REMARK SMILES IDX 3 1 4 2 5 3 6 4 7 5 8 6 9 7 10 8 11 9 12 10 14 11 15 12
REMARK SMILES IDX 16 13 2 14 1 15 21 16 19 17 20 18 18 19 17 21 13 23
REMARK H PARENT 13 24
REMARK Flexibility Score:    8.900
ROOT
ATOM      1  C   UNL     1      -1.983  -2.026   0.434  1.00  0.00    +0.161 A 
ATOM      2  C   UNL     1      -3.001  -1.263  -0.137  1.00  0.00    +0.051 A 
ATOM      3  C   UNL     1      -2.744   0.042  -0.593  1.00  0.00    +0.009 A 
ATOM      4  C   UNL     1      -1.456   0.601  -0.525  1.00  0.00    -0.026 A 
ATOM      5  C   UNL     1      -0.431  -0.206  -0.040  1.00  0.00    +0.016 A 
ATOM      6  C   UNL     1      -0.713  -1.461   0.481  1.00  0.00    +0.166 A 
ATOM      7  O   UNL     1       0.347  -2.049   1.122  1.00  0.00    -0.485 OA
ATOM      8  C   UNL     1       1.482  -1.179   0.882  1.00  0.00    +0.191 C 
ATOM      9  C   UNL     1       2.482  -2.034   0.095  1.00  0.00    +0.082 C 
ATOM     10  C   UNL     1       3.570  -1.206  -0.566  1.00  0.00    +0.140 C 
ATOM     11  C   UNL     1       2.962  -0.133  -1.404  1.00  0.00    +0.001 C 
ATOM     12  C   UNL     1       1.786   0.435  -1.099  1.00  0.00    -0.013 C 
ATOM     13  C   UNL     1       1.007   0.143   0.175  1.00  0.00    +0.056 C 
ENDROOT
BRANCH   1  14
ATOM     14  O   UNL     1      -2.118  -3.278   0.964  1.00  0.00    -0.493 OA
ATOM     15  C   UNL     1      -3.422  -3.840   0.969  1.00  0.00    +0.278 C 
ENDBRANCH   1  14
BRANCH   4  16
ATOM     16  C   UNL     1      -1.229   2.050  -0.877  1.00  0.00    +0.120 C 
BRANCH  16  17
ATOM     17  N   UNL     1      -0.798   2.849   0.285  1.00  0.00    -0.302 NA
ATOM     18  C   UNL     1      -1.105   4.264   0.046  1.00  0.00    +0.105 C 
BRANCH  17  19
ATOM     19  C   UNL     1       0.637   2.708   0.595  1.00  0.00    +0.086 CG0
ATOM     20  G   UNL     1       1.087   1.341   1.149  1.00  0.00    +0.000 G0
ENDBRANCH  17  19
ENDBRANCH  16  17
ENDBRANCH   4  16
BRANCH  13  21
ATOM     21  C   UNL     1       1.087   1.341   1.149  1.00  0.00    +0.035 CG0
ATOM     22  G   UNL     1       0.637   2.708   0.595  1.00  0.00    +0.000 G0
ENDBRANCH  13  21
BRANCH  10  23
ATOM     23  O   UNL     1       4.349  -2.042  -1.412  1.00  0.00    -0.389 OA
ATOM     24  H   UNL     1       3.743  -2.458  -2.049  1.00  0.00    +0.211 HD
ENDBRANCH  10  23
TORSDOF 2
