REMARK SMILES O=C(O)[C@@H]1O[C@@H](O)[C@H](O)[C@@H](O)[C@H]1O
REMARK SMILES IDX 4 1 5 2 6 3 8 4 10 5 12 6 2 7 1 8 3 9 13 11 7 13 11 15 9 17
REMARK H PARENT 3 10 13 12 7 14 11 16 9 18
ROOT
ATOM      1  C   UNL     1       1.165   0.152  -0.066  1.00  0.00    +0.262 C 
ATOM      2  O   UNL     1       0.455   1.349   0.195  1.00  0.00    -0.332 OA
ATOM      3  C   UNL     1      -0.712   1.450  -0.616  1.00  0.00    +0.279 C 
ATOM      4  C   UNL     1      -1.498   0.112  -0.744  1.00  0.00    +0.201 C 
ATOM      5  C   UNL     1      -1.153  -0.829   0.424  1.00  0.00    +0.180 C 
ATOM      6  C   UNL     1       0.381  -1.067   0.490  1.00  0.00    +0.186 C 
ENDROOT
BRANCH   1   7
ATOM      7  C   UNL     1       2.519   0.235   0.572  1.00  0.00    +0.335 C 
ATOM      8  O   UNL     1       3.523  -0.254  -0.011  1.00  0.00    -0.249 OA
BRANCH   7   9
ATOM      9  O   UNL     1       2.661   0.811   1.832  1.00  0.00    -0.479 OA
ATOM     10  H   UNL     1       3.567   0.858   2.282  1.00  0.00    +0.296 HD
ENDBRANCH   7   9
ENDBRANCH   1   7
BRANCH   6  11
ATOM     11  O   UNL     1       0.756  -2.241  -0.189  1.00  0.00    -0.387 OA
ATOM     12  H   UNL     1       0.468  -2.148  -1.134  1.00  0.00    +0.211 HD
ENDBRANCH   6  11
BRANCH   3  13
ATOM     13  O   UNL     1      -0.373   1.926  -1.892  1.00  0.00    -0.366 OA
ATOM     14  H   UNL     1       0.018   2.829  -1.761  1.00  0.00    +0.213 HD
ENDBRANCH   3  13
BRANCH   5  15
ATOM     15  O   UNL     1      -1.848  -2.041   0.282  1.00  0.00    -0.387 OA
ATOM     16  H   UNL     1      -1.779  -2.512   1.153  1.00  0.00    +0.211 HD
ENDBRANCH   5  15
BRANCH   4  17
ATOM     17  O   UNL     1      -2.884   0.344  -0.820  1.00  0.00    -0.385 OA
ATOM     18  H   UNL     1      -3.176   0.723   0.050  1.00  0.00    +0.211 HD
ENDBRANCH   4  17
TORSDOF 6
