REMARK SMILES C=CCc1ccc(O)c(-c2cc(CC=C)ccc2O)c1
REMARK SMILES IDX 4 1 5 2 6 3 7 4 9 5 20 6 3 7 2 8 1 9 10 10 11 11 18 12 12 13
REMARK SMILES IDX 17 14 16 15 19 16 13 18 14 19 15 20 8 21
REMARK H PARENT 19 17 8 22
ROOT
ATOM      1  C   UNL     1      -3.024  -0.301   0.112  1.00  0.00    -0.043 A 
ATOM      2  C   UNL     1      -3.312  -0.566   1.459  1.00  0.00    +0.008 A 
ATOM      3  C   UNL     1      -2.294  -0.954   2.333  1.00  0.00    +0.047 A 
ATOM      4  C   UNL     1      -0.974  -1.071   1.875  1.00  0.00    +0.123 A 
ATOM      5  C   UNL     1      -0.673  -0.802   0.526  1.00  0.00    +0.027 A 
ATOM      6  C   UNL     1      -1.701  -0.405  -0.345  1.00  0.00    +0.016 A 
ENDROOT
BRANCH   1   7
ATOM      7  C   UNL     1      -4.119   0.142  -0.819  1.00  0.00    +0.062 C 
BRANCH   7   8
ATOM      8  C   UNL     1      -4.261   1.638  -0.771  1.00  0.00    -0.030 C 
ATOM      9  C   UNL     1      -5.238   2.232  -0.077  1.00  0.00    +0.004 C 
ENDBRANCH   7   8
ENDBRANCH   1   7
BRANCH   5  10
ATOM     10  C   UNL     1       0.716  -0.903   0.025  1.00  0.00    +0.027 A 
ATOM     11  C   UNL     1       1.348   0.237  -0.499  1.00  0.00    +0.016 A 
ATOM     12  C   UNL     1       1.418  -2.121   0.075  1.00  0.00    +0.123 A 
ATOM     13  C   UNL     1       2.670   0.172  -0.965  1.00  0.00    -0.043 A 
ATOM     14  C   UNL     1       2.741  -2.185  -0.385  1.00  0.00    +0.047 A 
ATOM     15  C   UNL     1       3.364  -1.045  -0.894  1.00  0.00    +0.008 A 
BRANCH  12  16
ATOM     16  O   UNL     1       0.799  -3.267   0.572  1.00  0.00    -0.507 OA
ATOM     17  H   UNL     1       1.286  -4.152   0.627  1.00  0.00    +0.293 HD
ENDBRANCH  12  16
BRANCH  13  18
ATOM     18  C   UNL     1       3.364   1.412  -1.463  1.00  0.00    +0.062 C 
BRANCH  18  19
ATOM     19  C   UNL     1       4.114   2.067  -0.335  1.00  0.00    -0.030 C 
ATOM     20  C   UNL     1       5.388   1.760  -0.068  1.00  0.00    +0.004 C 
ENDBRANCH  18  19
ENDBRANCH  13  18
ENDBRANCH   5  10
BRANCH   4  21
ATOM     21  O   UNL     1       0.040  -1.435   2.761  1.00  0.00    -0.507 OA
ATOM     22  H   UNL     1      -0.151  -1.625   3.738  1.00  0.00    +0.293 HD
ENDBRANCH   4  21
TORSDOF 7
