REMARK SMILES C=CCc1ccc(O)c(-c2cc(CC=C)ccc2O)c1
REMARK SMILES IDX 4 1 5 2 6 3 7 4 9 5 20 6 3 7 2 8 1 9 10 10 11 11 18 12 12 13
REMARK SMILES IDX 17 14 16 15 19 16 13 18 14 19 15 20 8 21
REMARK H PARENT 19 17 8 22
ROOT
ATOM      1  C   UNL     1       2.690   0.825   0.065  1.00  0.00    -0.043 A 
ATOM      2  C   UNL     1       2.795   1.623   1.215  1.00  0.00    +0.008 A 
ATOM      3  C   UNL     1       1.716   1.735   2.096  1.00  0.00    +0.047 A 
ATOM      4  C   UNL     1       0.525   1.038   1.850  1.00  0.00    +0.123 A 
ATOM      5  C   UNL     1       0.415   0.222   0.707  1.00  0.00    +0.027 A 
ATOM      6  C   UNL     1       1.503   0.120  -0.177  1.00  0.00    +0.016 A 
ENDROOT
BRANCH   1   7
ATOM      7  C   UNL     1       3.861   0.675  -0.866  1.00  0.00    +0.062 C 
BRANCH   7   8
ATOM      8  C   UNL     1       4.661  -0.540  -0.492  1.00  0.00    -0.030 C 
ATOM      9  C   UNL     1       5.926  -0.454  -0.064  1.00  0.00    +0.004 C 
ENDBRANCH   7   8
ENDBRANCH   1   7
BRANCH   5  10
ATOM     10  C   UNL     1      -0.821  -0.543   0.435  1.00  0.00    +0.027 A 
ATOM     11  C   UNL     1      -2.039   0.134   0.263  1.00  0.00    +0.016 A 
ATOM     12  C   UNL     1      -0.784  -1.946   0.320  1.00  0.00    +0.123 A 
ATOM     13  C   UNL     1      -3.215  -0.577  -0.029  1.00  0.00    -0.043 A 
ATOM     14  C   UNL     1      -1.955  -2.653   0.019  1.00  0.00    +0.047 A 
ATOM     15  C   UNL     1      -3.161  -1.973  -0.162  1.00  0.00    +0.008 A 
BRANCH  12  16
ATOM     16  O   UNL     1       0.413  -2.634   0.514  1.00  0.00    -0.507 OA
ATOM     17  H   UNL     1       0.463  -3.643   0.445  1.00  0.00    +0.293 HD
ENDBRANCH  12  16
BRANCH  13  18
ATOM     18  C   UNL     1      -4.507   0.156  -0.266  1.00  0.00    +0.062 C 
BRANCH  18  19
ATOM     19  C   UNL     1      -4.630   0.548  -1.711  1.00  0.00    -0.030 C 
ATOM     20  C   UNL     1      -4.052   1.654  -2.190  1.00  0.00    +0.004 C 
ENDBRANCH  18  19
ENDBRANCH  13  18
ENDBRANCH   5  10
BRANCH   4  21
ATOM     21  O   UNL     1      -0.538   1.137   2.748  1.00  0.00    -0.507 OA
ATOM     22  H   UNL     1      -0.465   1.679   3.601  1.00  0.00    +0.293 HD
ENDBRANCH   4  21
TORSDOF 7
