REMARK SMILES C=CCc1ccc(O)c(-c2ccc(O)c(CC=C)c2)c1
REMARK SMILES IDX 4 1 5 2 6 3 7 4 9 5 20 6 3 7 2 8 1 9 10 10 11 11 19 12 12 13
REMARK SMILES IDX 15 14 13 15 16 16 17 17 18 18 14 19 8 21
REMARK H PARENT 14 20 8 22
ROOT
ATOM      1  C   UNL     1       2.860   1.424  -0.031  1.00  0.00    -0.043 A 
ATOM      2  C   UNL     1       2.889   1.766  -1.388  1.00  0.00    +0.008 A 
ATOM      3  C   UNL     1       1.866   1.353  -2.240  1.00  0.00    +0.047 A 
ATOM      4  C   UNL     1       0.810   0.589  -1.745  1.00  0.00    +0.123 A 
ATOM      5  C   UNL     1       0.747   0.224  -0.390  1.00  0.00    +0.024 A 
ATOM      6  C   UNL     1       1.791   0.650   0.453  1.00  0.00    +0.016 A 
ENDROOT
BRANCH   1   7
ATOM      7  C   UNL     1       3.971   1.854   0.897  1.00  0.00    +0.062 C 
BRANCH   7   8
ATOM      8  C   UNL     1       4.970   0.757   1.136  1.00  0.00    -0.030 C 
ATOM      9  C   UNL     1       5.257   0.244   2.340  1.00  0.00    +0.004 C 
ENDBRANCH   7   8
ENDBRANCH   1   7
BRANCH   5  10
ATOM     10  C   UNL     1      -0.353  -0.573   0.169  1.00  0.00    -0.014 A 
ATOM     11  C   UNL     1      -0.139  -1.890   0.601  1.00  0.00    +0.013 A 
ATOM     12  C   UNL     1      -1.648  -0.037   0.273  1.00  0.00    +0.016 A 
ATOM     13  C   UNL     1      -1.189  -2.655   1.113  1.00  0.00    +0.047 A 
ATOM     14  C   UNL     1      -2.716  -0.792   0.791  1.00  0.00    -0.002 A 
ATOM     15  C   UNL     1      -2.467  -2.105   1.199  1.00  0.00    +0.119 A 
BRANCH  14  16
ATOM     16  C   UNL     1      -4.095  -0.180   0.854  1.00  0.00    +0.066 C 
BRANCH  16  17
ATOM     17  C   UNL     1      -4.845  -0.336  -0.440  1.00  0.00    -0.030 C 
ATOM     18  C   UNL     1      -5.237   0.680  -1.219  1.00  0.00    +0.004 C 
ENDBRANCH  16  17
ENDBRANCH  14  16
BRANCH  15  19
ATOM     19  O   UNL     1      -3.501  -2.855   1.685  1.00  0.00    -0.508 OA
ATOM     20  H   UNL     1      -3.165  -3.733   1.927  1.00  0.00    +0.293 HD
ENDBRANCH  15  19
ENDBRANCH   5  10
BRANCH   4  21
ATOM     21  O   UNL     1      -0.136   0.213  -2.661  1.00  0.00    -0.507 OA
ATOM     22  H   UNL     1      -0.776  -0.375  -2.223  1.00  0.00    +0.293 HD
ENDBRANCH   4  21
TORSDOF 7
