REMARK SMILES CN(C)c1ccc2c(c1)sc1ccc(N(C)C)cc12
REMARK SMILES IDX 14 1 18 2 19 3 11 4 12 5 13 6 10 7 8 8 7 9 6 10 5 11 4 12
REMARK SMILES IDX 9 13 15 14 16 15 17 16 2 17 1 18 3 19
REMARK H PARENT
ROOT
ATOM      1  C   UNL     1      -3.306  -0.284  -0.013  1.00  0.00    +0.037 A 
ATOM      2  C   UNL     1      -1.994   0.254  -0.088  1.00  0.00    +0.036 A 
ATOM      3  C   UNL     1      -0.885  -0.591   0.050  1.00  0.00    +0.002 A 
ATOM      4  C   UNL     1      -1.070  -1.951   0.263  1.00  0.00    +0.036 A 
ATOM      5  C   UNL     1      -2.334  -2.517   0.346  1.00  0.00    +0.022 A 
ATOM      6  C   UNL     1      -3.451  -1.682   0.207  1.00  0.00    +0.027 A 
ATOM      7  S   UNL     1       0.417  -2.737   0.391  1.00  0.00    -0.135 S 
ATOM      8  C   UNL     1       1.317  -1.328   0.171  1.00  0.00    +0.038 A 
ATOM      9  C   UNL     1       0.474  -0.237  -0.002  1.00  0.00    +0.001 A 
ATOM     10  C   UNL     1       1.016   1.034  -0.205  1.00  0.00    +0.012 A 
ATOM     11  C   UNL     1       2.412   1.186  -0.230  1.00  0.00    +0.026 A 
ATOM     12  C   UNL     1       3.282   0.074  -0.055  1.00  0.00    +0.038 A 
ATOM     13  C   UNL     1       2.703  -1.204   0.150  1.00  0.00    +0.045 A 
ENDROOT
BRANCH   1  14
ATOM     14  N   UNL     1      -4.474   0.574  -0.159  1.00  0.00    -0.378 N 
ATOM     15  C   UNL     1      -4.322   2.008  -0.445  1.00  0.00    +0.143 C 
ATOM     16  C   UNL     1      -5.831   0.024  -0.022  1.00  0.00    +0.143 C 
ENDBRANCH   1  14
BRANCH  12  17
ATOM     17  N   UNL     1       4.728   0.242  -0.088  1.00  0.00    -0.378 N 
ATOM     18  C   UNL     1       5.621  -0.914   0.078  1.00  0.00    +0.143 C 
ATOM     19  C   UNL     1       5.325   1.570  -0.290  1.00  0.00    +0.143 C 
ENDBRANCH  12  17
TORSDOF 2
