REMARK SMILES CN(C)c1ccc2c(c1)Sc1cc(N(C)C)ccc1N2
REMARK SMILES IDX 4 1 5 2 6 3 7 4 8 5 9 6 10 7 11 8 12 9 13 10 17 11 18 12
REMARK SMILES IDX 19 13 20 14 2 16 1 17 3 18 14 19 15 20 16 21
REMARK H PARENT 20 15
ROOT
ATOM      1  C   UNL     1      -3.865  -0.060   0.010  1.00  0.00    +0.037 A 
ATOM      2  C   UNL     1      -3.670  -1.369   0.476  1.00  0.00    +0.028 A 
ATOM      3  C   UNL     1      -2.391  -1.900   0.702  1.00  0.00    +0.029 A 
ATOM      4  C   UNL     1      -1.243  -1.142   0.465  1.00  0.00    +0.053 A 
ATOM      5  C   UNL     1      -1.403   0.180   0.038  1.00  0.00    +0.038 A 
ATOM      6  C   UNL     1      -2.696   0.698  -0.183  1.00  0.00    +0.043 A 
ATOM      7  S   UNL     1      -0.017   1.271  -0.254  1.00  0.00    -0.086 SA
ATOM      8  C   UNL     1       1.394   0.231   0.103  1.00  0.00    +0.038 A 
ATOM      9  C   UNL     1       2.676   0.797  -0.059  1.00  0.00    +0.043 A 
ATOM     10  C   UNL     1       3.862   0.090   0.210  1.00  0.00    +0.037 A 
ATOM     11  C   UNL     1       3.694  -1.237   0.634  1.00  0.00    +0.028 A 
ATOM     12  C   UNL     1       2.427  -1.816   0.799  1.00  0.00    +0.029 A 
ATOM     13  C   UNL     1       1.263  -1.096   0.521  1.00  0.00    +0.053 A 
ATOM     14  N   UNL     1       0.015  -1.700   0.744  1.00  0.00    -0.354 N 
ATOM     15  H   UNL     1       0.031  -2.707   0.838  1.00  0.00    +0.167 HD
ENDROOT
BRANCH   1  16
ATOM     16  N   UNL     1      -5.145   0.468  -0.201  1.00  0.00    -0.378 N 
ATOM     17  C   UNL     1      -5.282   1.756  -0.880  1.00  0.00    +0.143 C 
ATOM     18  C   UNL     1      -6.267  -0.454  -0.370  1.00  0.00    +0.143 C 
ENDBRANCH   1  16
BRANCH  10  19
ATOM     19  N   UNL     1       5.130   0.656   0.029  1.00  0.00    -0.378 N 
ATOM     20  C   UNL     1       6.278   0.034   0.686  1.00  0.00    +0.143 C 
ATOM     21  C   UNL     1       5.242   2.095  -0.206  1.00  0.00    +0.143 C 
ENDBRANCH  10  19
TORSDOF 2
