REMARK SMILES CN(C)c1ccc2c(c1)Sc1cc(N(C)C)ccc1N2
REMARK SMILES IDX 4 1 5 2 6 3 7 4 20 5 19 6 18 7 17 8 13 9 12 10 11 11 10 12
REMARK SMILES IDX 8 13 9 14 2 16 1 17 3 18 14 19 15 20 16 21
REMARK H PARENT 20 15
ROOT
ATOM      1  C   UNL     1      -3.609  -0.053   0.192  1.00  0.00    +0.037 A 
ATOM      2  C   UNL     1      -3.536   1.300   0.599  1.00  0.00    +0.028 A 
ATOM      3  C   UNL     1      -2.353   1.830   1.120  1.00  0.00    +0.029 A 
ATOM      4  C   UNL     1      -1.219   1.023   1.267  1.00  0.00    +0.053 A 
ATOM      5  N   UNL     1       0.036   1.607   1.658  1.00  0.00    -0.354 N 
ATOM      6  C   UNL     1       1.271   1.061   1.165  1.00  0.00    +0.053 A 
ATOM      7  C   UNL     1       2.367   1.901   0.928  1.00  0.00    +0.029 A 
ATOM      8  C   UNL     1       3.525   1.398   0.329  1.00  0.00    +0.028 A 
ATOM      9  C   UNL     1       3.611   0.044  -0.061  1.00  0.00    +0.037 A 
ATOM     10  C   UNL     1       2.503  -0.796   0.191  1.00  0.00    +0.043 A 
ATOM     11  C   UNL     1       1.355  -0.297   0.818  1.00  0.00    +0.038 A 
ATOM     12  S   UNL     1       0.063  -1.430   1.341  1.00  0.00    -0.086 SA
ATOM     13  C   UNL     1      -1.287  -0.332   0.909  1.00  0.00    +0.038 A 
ATOM     14  C   UNL     1      -2.457  -0.858   0.352  1.00  0.00    +0.043 A 
ATOM     15  H   UNL     1       0.038   2.575   2.060  1.00  0.00    +0.167 HD
ENDROOT
BRANCH   1  16
ATOM     16  N   UNL     1      -4.844  -0.604  -0.351  1.00  0.00    -0.378 N 
ATOM     17  C   UNL     1      -6.099   0.162  -0.286  1.00  0.00    +0.143 C 
ATOM     18  C   UNL     1      -4.870  -1.943  -0.960  1.00  0.00    +0.143 C 
ENDBRANCH   1  16
BRANCH   9  19
ATOM     19  N   UNL     1       4.822  -0.477  -0.675  1.00  0.00    -0.378 N 
ATOM     20  C   UNL     1       6.097   0.241  -0.542  1.00  0.00    +0.143 C 
ATOM     21  C   UNL     1       4.799  -1.743  -1.421  1.00  0.00    +0.143 C 
ENDBRANCH   9  19
TORSDOF 2
