REMARK SMILES Cn1cc(-c2cc(NC(=O)c3ncc(OCC(F)(F)F)cn3)ccc2F)cn1
REMARK SMILES IDX 11 1 12 2 13 3 14 4 21 5 22 6 9 7 8 8 10 9 7 11 5 12 6 13
REMARK SMILES IDX 25 14 24 15 23 16 26 17 4 18 2 19 3 20 28 21 27 22 1 23
REMARK SMILES IDX 15 24 16 25 17 26 18 27 19 28 20 29
REMARK H PARENT 8 10
ROOT
ATOM      1  C   UNL     1       1.980   0.859   0.513  1.00  0.00    +0.218 A 
ATOM      2  N   UNL     1       2.413   2.126   0.762  1.00  0.00    -0.228 NA
ATOM      3  C   UNL     1       3.662   2.525   0.408  1.00  0.00    +0.161 A 
ATOM      4  C   UNL     1       4.530   1.635  -0.227  1.00  0.00    +0.156 A 
ATOM      5  C   UNL     1       4.059   0.338  -0.496  1.00  0.00    +0.161 A 
ATOM      6  N   UNL     1       2.804  -0.021  -0.118  1.00  0.00    -0.228 NA
ENDROOT
BRANCH   1   7
ATOM      7  C   UNL     1       0.628   0.449   0.927  1.00  0.00    +0.293 C 
ATOM      8  N   UNL     1       0.280  -0.939   1.003  1.00  0.00    -0.319 N 
ATOM      9  O   UNL     1      -0.213   1.331   1.257  1.00  0.00    -0.265 OA
ATOM     10  H   UNL     1       1.054  -1.649   0.999  1.00  0.00    +0.170 HD
BRANCH   8  11
ATOM     11  C   UNL     1      -1.044  -1.387   1.325  1.00  0.00    +0.042 A 
ATOM     12  C   UNL     1      -3.457  -1.332   0.941  1.00  0.00    +0.023 A 
ATOM     13  C   UNL     1      -2.160  -0.874   0.647  1.00  0.00    +0.038 A 
ATOM     14  C   UNL     1      -3.620  -2.307   1.950  1.00  0.00    +0.131 A 
ATOM     15  C   UNL     1      -2.506  -2.831   2.610  1.00  0.00    +0.042 A 
ATOM     16  C   UNL     1      -1.223  -2.385   2.291  1.00  0.00    +0.029 A 
ATOM     17  F   UNL     1      -4.852  -2.739   2.323  1.00  0.00    -0.206 F 
BRANCH  12  18
ATOM     18  C   UNL     1      -4.617  -0.814   0.174  1.00  0.00    +0.023 A 
ATOM     19  N   UNL     1      -5.901   0.426  -1.129  1.00  0.00    -0.275 N 
ATOM     20  C   UNL     1      -4.697   0.375  -0.529  1.00  0.00    +0.117 A 
ATOM     21  N   UNL     1      -6.603  -0.655  -0.837  1.00  0.00    -0.181 NA
ATOM     22  C   UNL     1      -5.838  -1.436  -0.050  1.00  0.00    +0.144 A 
ATOM     23  C   UNL     1      -6.400   1.519  -1.955  1.00  0.00    +0.173 C 
ENDBRANCH  12  18
ENDBRANCH   8  11
ENDBRANCH   1   7
BRANCH   4  24
ATOM     24  O   UNL     1       5.818   2.082  -0.567  1.00  0.00    -0.481 OA
BRANCH  24  25
ATOM     25  C   UNL     1       6.841   1.292  -1.181  1.00  0.00    +0.345 C 
BRANCH  25  26
ATOM     26  C   UNL     1       7.594   0.451  -0.144  1.00  0.00    +0.422 C 
ATOM     27  F   UNL     1       8.651  -0.204  -0.757  1.00  0.00    -0.167 F 
ATOM     28  F   UNL     1       6.760  -0.494   0.422  1.00  0.00    -0.167 F 
ATOM     29  F   UNL     1       8.095   1.270   0.855  1.00  0.00    -0.167 F 
ENDBRANCH  25  26
ENDBRANCH  24  25
ENDBRANCH   4  24
TORSDOF 6
