REMARK SMILES O=c1cc(-c2ccc(O)c(O)c2)oc2cc(O)cc(O)c12
REMARK SMILES IDX 1 1 2 2 3 3 4 4 13 5 14 6 15 7 16 8 18 9 19 10 21 11 5 12
REMARK SMILES IDX 6 13 12 14 7 15 10 16 8 17 11 18 9 20 20 22 17 24
REMARK H PARENT 11 19 9 21 20 23 17 25
ROOT
ATOM      1  O   UNL     1       1.377  -1.841   2.898  1.00  0.00    -0.289 OA
ATOM      2  C   UNL     1       1.113  -1.181   1.899  1.00  0.00    +0.197 C 
ATOM      3  C   UNL     1      -0.218  -1.219   1.278  1.00  0.00    +0.100 C 
ATOM      4  C   UNL     1      -0.447  -0.478   0.184  1.00  0.00    +0.138 C 
ATOM      5  O   UNL     1       0.495   0.351  -0.407  1.00  0.00    -0.456 OA
ATOM      6  C   UNL     1       1.752   0.409   0.142  1.00  0.00    +0.146 A 
ATOM      7  C   UNL     1       2.680   1.243  -0.482  1.00  0.00    +0.094 A 
ATOM      8  C   UNL     1       3.969   1.342   0.034  1.00  0.00    +0.123 A 
ATOM      9  C   UNL     1       4.348   0.622   1.164  1.00  0.00    +0.093 A 
ATOM     10  C   UNL     1       3.417  -0.210   1.783  1.00  0.00    +0.134 A 
ATOM     11  C   UNL     1       2.119  -0.317   1.273  1.00  0.00    +0.107 A 
ENDROOT
BRANCH   4  12
ATOM     12  C   UNL     1      -1.765  -0.463  -0.482  1.00  0.00    +0.021 A 
ATOM     13  C   UNL     1      -2.491  -1.650  -0.696  1.00  0.00    +0.016 A 
ATOM     14  C   UNL     1      -2.302   0.754  -0.939  1.00  0.00    +0.062 A 
ATOM     15  C   UNL     1      -3.734  -1.625  -1.336  1.00  0.00    +0.051 A 
ATOM     16  C   UNL     1      -3.539   0.769  -1.576  1.00  0.00    +0.158 A 
ATOM     17  C   UNL     1      -4.247  -0.413  -1.768  1.00  0.00    +0.157 A 
BRANCH  16  18
ATOM     18  O   UNL     1      -4.104   1.928  -2.032  1.00  0.00    -0.504 OA
ATOM     19  H   UNL     1      -3.493   2.661  -1.842  1.00  0.00    +0.293 HD
ENDBRANCH  16  18
BRANCH  17  20
ATOM     20  O   UNL     1      -5.460  -0.389  -2.393  1.00  0.00    -0.504 OA
ATOM     21  H   UNL     1      -5.609   0.555  -2.606  1.00  0.00    +0.293 HD
ENDBRANCH  17  20
ENDBRANCH   4  12
BRANCH  10  22
ATOM     22  O   UNL     1       3.842  -0.894   2.890  1.00  0.00    -0.507 OA
ATOM     23  H   UNL     1       3.091  -1.437   3.223  1.00  0.00    +0.293 HD
ENDBRANCH  10  22
BRANCH   8  24
ATOM     24  O   UNL     1       4.844   2.169  -0.605  1.00  0.00    -0.508 OA
ATOM     25  H   UNL     1       5.702   2.133  -0.148  1.00  0.00    +0.293 HD
ENDBRANCH   8  24
TORSDOF 5
