REMARK SMILES O=c1cc(-c2ccc(O)c(O)c2)oc2cc(O)cc(O)c12
REMARK SMILES IDX 1 1 2 2 3 3 4 4 13 5 14 6 15 7 16 8 18 9 19 10 21 11 5 12
REMARK SMILES IDX 6 13 12 14 7 15 10 16 8 17 11 18 9 20 20 22 17 24
REMARK H PARENT 11 19 9 21 20 23 17 25
ROOT
ATOM      1  O   UNL     1      -2.402  -2.115   2.024  1.00  0.00    -0.289 OA
ATOM      2  C   UNL     1      -1.812  -1.338   1.229  1.00  0.00    +0.197 A 
ATOM      3  C   UNL     1      -0.421  -1.413   1.143  1.00  0.00    +0.100 A 
ATOM      4  C   UNL     1       0.272  -0.514   0.321  1.00  0.00    +0.138 A 
ATOM      5  O   UNL     1      -0.406   0.414  -0.346  1.00  0.00    -0.456 OA
ATOM      6  C   UNL     1      -1.729   0.525  -0.305  1.00  0.00    +0.146 A 
ATOM      7  C   UNL     1      -2.337   1.555  -1.028  1.00  0.00    +0.094 A 
ATOM      8  C   UNL     1      -3.722   1.717  -0.998  1.00  0.00    +0.123 A 
ATOM      9  C   UNL     1      -4.508   0.829  -0.265  1.00  0.00    +0.093 A 
ATOM     10  C   UNL     1      -3.932  -0.235   0.440  1.00  0.00    +0.134 A 
ATOM     11  C   UNL     1      -2.513  -0.377   0.462  1.00  0.00    +0.107 A 
ENDROOT
BRANCH   4  12
ATOM     12  C   UNL     1       1.751  -0.550   0.193  1.00  0.00    +0.021 A 
ATOM     13  C   UNL     1       2.480  -1.742   0.366  1.00  0.00    +0.016 A 
ATOM     14  C   UNL     1       2.446   0.627  -0.139  1.00  0.00    +0.062 A 
ATOM     15  C   UNL     1       3.870  -1.748   0.231  1.00  0.00    +0.051 A 
ATOM     16  C   UNL     1       3.842   0.621  -0.274  1.00  0.00    +0.158 A 
ATOM     17  C   UNL     1       4.556  -0.573  -0.086  1.00  0.00    +0.157 A 
BRANCH  16  18
ATOM     18  O   UNL     1       4.520   1.797  -0.593  1.00  0.00    -0.504 OA
ATOM     19  H   UNL     1       4.028   2.672  -0.733  1.00  0.00    +0.293 HD
ENDBRANCH  16  18
BRANCH  17  20
ATOM     20  O   UNL     1       5.944  -0.611  -0.214  1.00  0.00    -0.504 OA
ATOM     21  H   UNL     1       6.486   0.212  -0.446  1.00  0.00    +0.293 HD
ENDBRANCH  17  20
ENDBRANCH   4  12
BRANCH  10  22
ATOM     22  O   UNL     1      -4.814  -1.120   1.066  1.00  0.00    -0.507 OA
ATOM     23  H   UNL     1      -4.578  -2.057   1.358  1.00  0.00    +0.293 HD
ENDBRANCH  10  22
BRANCH   8  24
ATOM     24  O   UNL     1      -4.331   2.754  -1.702  1.00  0.00    -0.508 OA
ATOM     25  H   UNL     1      -3.790   3.413  -2.248  1.00  0.00    +0.293 HD
ENDBRANCH   8  24
TORSDOF 5
