REMARK SMILES COc1ccc2[nH]cc(CCNC(C)=O)c2c1
REMARK SMILES IDX 10 1 11 2 12 3 13 4 15 5 14 6 9 8 8 9 16 10 7 11 17 12 6 13
REMARK SMILES IDX 3 14 5 15 4 16 2 18 1 19
REMARK H PARENT 12 7 7 17
ROOT
ATOM      1  C   UNL     1      -1.297  -0.689   1.235  1.00  0.00    +0.059 C 
ENDROOT
BRANCH   1   2
ATOM      2  C   UNL     1      -2.142  -0.118   0.093  1.00  0.00    +0.120 C 
BRANCH   2   3
ATOM      3  N   UNL     1      -3.281   0.635   0.614  1.00  0.00    -0.356 N 
ATOM      4  C   UNL     1      -4.221   1.270  -0.263  1.00  0.00    +0.216 C 
ATOM      5  O   UNL     1      -4.071   1.203  -1.513  1.00  0.00    -0.275 OA
ATOM      6  C   UNL     1      -5.363   2.048   0.304  1.00  0.00    +0.114 C 
ATOM      7  H   UNL     1      -3.423   0.723   1.647  1.00  0.00    +0.163 HD
ENDBRANCH   2   3
ENDBRANCH   1   2
BRANCH   1   8
ATOM      8  C   UNL     1      -0.127  -1.454   0.694  1.00  0.00    -0.021 A 
ATOM      9  C   UNL     1      -0.076  -2.821   0.440  1.00  0.00    +0.087 A 
ATOM     10  C   UNL     1       1.078  -0.946   0.250  1.00  0.00    +0.006 A 
ATOM     11  N   UNL     1       1.112  -3.153  -0.116  1.00  0.00    -0.361 N 
ATOM     12  C   UNL     1       1.574   0.357   0.221  1.00  0.00    +0.057 A 
ATOM     13  C   UNL     1       1.803  -2.006  -0.228  1.00  0.00    +0.046 A 
ATOM     14  C   UNL     1       2.861   0.570  -0.309  1.00  0.00    +0.119 A 
ATOM     15  C   UNL     1       3.078  -1.837  -0.763  1.00  0.00    +0.030 A 
ATOM     16  C   UNL     1       3.611  -0.536  -0.801  1.00  0.00    +0.048 A 
ATOM     17  H   UNL     1       1.419  -4.106  -0.413  1.00  0.00    +0.166 HD
BRANCH  14  18
ATOM     18  O   UNL     1       3.358   1.881  -0.332  1.00  0.00    -0.497 OA
ATOM     19  C   UNL     1       4.644   2.244  -0.826  1.00  0.00    +0.278 C 
ENDBRANCH  14  18
ENDBRANCH   1   8
TORSDOF 4
