REMARK SMILES CC12CC3CC(C)(C1)CC(N)(C3)C2
REMARK SMILES IDX 1 1 2 2 3 3 4 4 5 5 6 6 7 7 8 8 9 9 10 10 12 11 13 12 11 13
REMARK H PARENT 11 14 11 15
ROOT
ATOM      1  C   UNL     1      -1.342  -2.605  -0.124  1.00  0.00    +0.011 C 
ATOM      2  C   UNL     1      -0.578  -1.289   0.055  1.00  0.00    -0.030 C 
ATOM      3  C   UNL     1      -0.067  -1.163   1.508  1.00  0.00    +0.010 C 
ATOM      4  C   UNL     1       0.699   0.156   1.695  1.00  0.00    -0.008 C 
ATOM      5  C   UNL     1      -0.235   1.336   1.384  1.00  0.00    +0.010 C 
ATOM      6  C   UNL     1      -0.748   1.249  -0.071  1.00  0.00    -0.030 C 
ATOM      7  C   UNL     1      -1.679   2.427  -0.376  1.00  0.00    +0.011 C 
ATOM      8  C   UNL     1      -1.504  -0.089  -0.252  1.00  0.00    +0.013 C 
ATOM      9  C   UNL     1       0.467   1.266  -1.029  1.00  0.00    +0.029 C 
ATOM     10  C   UNL     1       1.410   0.083  -0.725  1.00  0.00    +0.017 C 
ATOM     11  C   UNL     1       1.899   0.189   0.734  1.00  0.00    +0.025 C 
ATOM     12  C   UNL     1       0.634  -1.240  -0.904  1.00  0.00    +0.029 C 
ENDROOT
BRANCH  10  13
ATOM     13  N   UNL     1       2.557   0.126  -1.631  1.00  0.00    -0.325 NA
ATOM     14  H   UNL     1       3.169  -0.670  -1.452  1.00  0.00    +0.119 HD
ATOM     15  H   UNL     1       2.241   0.028  -2.595  1.00  0.00    +0.119 HD
ENDBRANCH  10  13
TORSDOF 1
