REMARK SMILES CC12CC3CC(C)(C1)CC(N)(C3)C2
REMARK SMILES IDX 1 1 2 2 3 3 4 4 5 5 6 6 7 7 8 8 9 9 10 10 12 11 13 12 11 13
REMARK H PARENT 11 14 11 15
ROOT
ATOM      1  C   UNL     1      -1.334   2.615   0.484  1.00  0.00    +0.011 C 
ATOM      2  C   UNL     1      -0.736   1.253   0.118  1.00  0.00    -0.030 C 
ATOM      3  C   UNL     1      -0.982   0.946  -1.377  1.00  0.00    +0.010 C 
ATOM      4  C   UNL     1      -0.383  -0.419  -1.750  1.00  0.00    -0.008 C 
ATOM      5  C   UNL     1       1.130  -0.402  -1.481  1.00  0.00    +0.010 C 
ATOM      6  C   UNL     1       1.409  -0.117   0.012  1.00  0.00    -0.030 C 
ATOM      7  C   UNL     1       2.918  -0.100   0.274  1.00  0.00    +0.011 C 
ATOM      8  C   UNL     1       0.788   1.251   0.380  1.00  0.00    +0.013 C 
ATOM      9  C   UNL     1       0.731  -1.215   0.864  1.00  0.00    +0.029 C 
ATOM     10  C   UNL     1      -0.791  -1.239   0.602  1.00  0.00    +0.017 C 
ATOM     11  C   UNL     1      -1.041  -1.515  -0.895  1.00  0.00    +0.025 C 
ATOM     12  C   UNL     1      -1.387   0.137   0.968  1.00  0.00    +0.029 C 
ENDROOT
BRANCH  10  13
ATOM     13  N   UNL     1      -1.429  -2.280   1.406  1.00  0.00    -0.325 NA
ATOM     14  H   UNL     1      -1.242  -2.117   2.395  1.00  0.00    +0.119 HD
ATOM     15  H   UNL     1      -1.018  -3.187   1.186  1.00  0.00    +0.119 HD
ENDBRANCH  10  13
TORSDOF 1
