REMARK SMILES CC12CC3CC(C)(C1)CC(N)(C3)C2
REMARK SMILES IDX 1 1 2 2 3 3 4 4 5 5 6 6 7 7 8 8 9 9 10 10 12 11 13 12 11 13
REMARK H PARENT 11 14 11 15
ROOT
ATOM      1  C   UNL     1      -1.788  -2.334   0.049  1.00  0.00    +0.011 C 
ATOM      2  C   UNL     1      -0.914  -1.077  -0.094  1.00  0.00    -0.030 C 
ATOM      3  C   UNL     1      -0.951  -0.572  -1.561  1.00  0.00    +0.010 C 
ATOM      4  C   UNL     1      -0.072   0.688  -1.707  1.00  0.00    -0.008 C 
ATOM      5  C   UNL     1       1.384   0.350  -1.326  1.00  0.00    +0.010 C 
ATOM      6  C   UNL     1       1.444  -0.143   0.143  1.00  0.00    -0.030 C 
ATOM      7  C   UNL     1       2.897  -0.478   0.524  1.00  0.00    +0.011 C 
ATOM      8  C   UNL     1       0.553  -1.405   0.290  1.00  0.00    +0.013 C 
ATOM      9  C   UNL     1       0.898   0.973   1.073  1.00  0.00    +0.029 C 
ATOM     10  C   UNL     1      -0.566   1.318   0.696  1.00  0.00    +0.017 C 
ATOM     11  C   UNL     1      -0.604   1.799  -0.777  1.00  0.00    +0.025 C 
ATOM     12  C   UNL     1      -1.442   0.045   0.839  1.00  0.00    +0.029 C 
ENDROOT
BRANCH  10  13
ATOM     13  N   UNL     1      -1.058   2.387   1.573  1.00  0.00    -0.325 NA
ATOM     14  H   UNL     1      -1.054   2.050   2.563  1.00  0.00    +0.119 HD
ATOM     15  H   UNL     1      -2.054   2.601   1.330  1.00  0.00    +0.119 HD
ENDBRANCH  10  13
TORSDOF 1
