REMARK SMILES CC12CC3CC(C)(C1)CC(N)(C3)C2
REMARK SMILES IDX 1 1 2 2 3 3 4 4 5 5 6 6 8 7 9 8 10 9 12 10 13 11 7 12 11 13
REMARK H PARENT 11 14 11 15
ROOT
ATOM      1  C   UNL     1      -0.851   2.519   1.256  1.00  0.00    +0.011 C 
ATOM      2  C   UNL     1      -0.492   1.231   0.495  1.00  0.00    -0.030 C 
ATOM      3  C   UNL     1      -0.899   1.367  -0.995  1.00  0.00    +0.010 C 
ATOM      4  C   UNL     1      -0.536   0.077  -1.760  1.00  0.00    -0.008 C 
ATOM      5  C   UNL     1       0.985  -0.165  -1.673  1.00  0.00    +0.010 C 
ATOM      6  C   UNL     1       1.411  -0.319  -0.190  1.00  0.00    -0.030 C 
ATOM      7  C   UNL     1       1.037   0.976   0.580  1.00  0.00    +0.013 C 
ATOM      8  C   UNL     1       0.645  -1.516   0.434  1.00  0.00    +0.029 C 
ATOM      9  C   UNL     1      -0.885  -1.280   0.350  1.00  0.00    +0.017 C 
ATOM     10  C   UNL     1      -1.286  -1.120  -1.139  1.00  0.00    +0.025 C 
ATOM     11  C   UNL     1      -1.241   0.023   1.116  1.00  0.00    +0.029 C 
ATOM     12  C   UNL     1       2.927  -0.563  -0.103  1.00  0.00    +0.011 C 
ENDROOT
BRANCH   9  13
ATOM     13  N   UNL     1      -1.591  -2.429   0.927  1.00  0.00    -0.325 NA
ATOM     14  H   UNL     1      -1.336  -2.519   1.938  1.00  0.00    +0.119 HD
ATOM     15  H   UNL     1      -2.622  -2.255   0.889  1.00  0.00    +0.119 HD
ENDBRANCH   9  13
TORSDOF 1
