REMARK SMILES CN(C)c1ccc2nc3ccc(N(C)C)cc3[s+]c2c1
REMARK SMILES IDX 4 1 5 2 6 3 7 4 8 5 9 6 10 7 11 8 12 9 16 10 17 11 18 12
REMARK SMILES IDX 19 13 20 14 2 15 1 16 3 17 13 18 14 19 15 20
REMARK H PARENT
ROOT
ATOM      1  C   UNL     1      -3.817  -0.055  -0.172  1.00  0.00    +0.042 A 
ATOM      2  C   UNL     1      -3.683  -1.328   0.427  1.00  0.00    +0.028 A 
ATOM      3  C   UNL     1      -2.425  -1.846   0.751  1.00  0.00    +0.036 A 
ATOM      4  C   UNL     1      -1.264  -1.114   0.489  1.00  0.00    +0.129 A 
ATOM      5  N   UNL     1      -0.053  -1.657   0.822  1.00  0.00    -0.237 NA
ATOM      6  C   UNL     1       1.193  -1.116   0.654  1.00  0.00    +0.129 A 
ATOM      7  C   UNL     1       2.308  -1.850   1.069  1.00  0.00    +0.036 A 
ATOM      8  C   UNL     1       3.599  -1.335   0.916  1.00  0.00    +0.028 A 
ATOM      9  C   UNL     1       3.813  -0.061   0.340  1.00  0.00    +0.042 A 
ATOM     10  C   UNL     1       2.682   0.675  -0.077  1.00  0.00    +0.100 A 
ATOM     11  C   UNL     1       1.395   0.151   0.080  1.00  0.00    +0.259 A 
ATOM     12  S   UNL     1       0.032   1.015  -0.411  1.00  0.00    +0.232 S 
ATOM     13  C   UNL     1      -1.385   0.154  -0.107  1.00  0.00    +0.259 A 
ATOM     14  C   UNL     1      -2.639   0.679  -0.434  1.00  0.00    +0.100 A 
ENDROOT
BRANCH   1  15
ATOM     15  N   UNL     1      -5.128   0.483  -0.509  1.00  0.00    -0.377 N 
ATOM     16  C   UNL     1      -6.349  -0.287  -0.231  1.00  0.00    +0.143 C 
ATOM     17  C   UNL     1      -5.258   1.807  -1.135  1.00  0.00    +0.143 C 
ENDBRANCH   1  15
BRANCH   9  18
ATOM     18  N   UNL     1       5.159   0.474   0.182  1.00  0.00    -0.377 N 
ATOM     19  C   UNL     1       5.373   1.802  -0.411  1.00  0.00    +0.143 C 
ATOM     20  C   UNL     1       6.331  -0.302   0.611  1.00  0.00    +0.143 C 
ENDBRANCH   9  18
TORSDOF 2
