REMARK SMILES CN(C)c1ccc2nc3ccc(=[N+](C)C)cc-3sc2c1
REMARK SMILES IDX 4 1 5 2 6 3 7 4 8 5 9 6 10 7 11 8 12 9 13 10 14 11 15 12
REMARK SMILES IDX 16 13 17 14 18 15 19 16 20 17 2 18 1 19 3 20
REMARK H PARENT
ROOT
ATOM      1  C   UNL     1       3.816  -0.106  -0.437  1.00  0.00    +0.038 A 
ATOM      2  C   UNL     1       3.632  -1.140   0.491  1.00  0.00    +0.028 A 
ATOM      3  C   UNL     1       2.358  -1.552   0.902  1.00  0.00    +0.032 A 
ATOM      4  C   UNL     1       1.205  -0.939   0.414  1.00  0.00    +0.081 A 
ATOM      5  N   UNL     1      -0.018  -1.425   0.893  1.00  0.00    -0.246 NA
ATOM      6  C   UNL     1      -1.140  -0.896   0.534  1.00  0.00    +0.081 C 
ATOM      7  C   UNL     1      -2.359  -1.499   1.125  1.00  0.00    +0.036 C 
ATOM      8  C   UNL     1      -3.593  -1.048   0.886  1.00  0.00    +0.081 C 
ATOM      9  C   UNL     1      -3.838   0.118  -0.010  1.00  0.00    +0.201 C 
ATOM     10  N   UNL     1      -5.033   0.592  -0.229  1.00  0.00    -0.235 N 
ATOM     11  C   UNL     1      -6.272  -0.061   0.305  1.00  0.00    +0.433 C 
ATOM     12  C   UNL     1      -5.276   1.836  -1.032  1.00  0.00    +0.433 C 
ATOM     13  C   UNL     1      -2.613   0.698  -0.637  1.00  0.00    +0.100 C 
ATOM     14  C   UNL     1      -1.375   0.241  -0.395  1.00  0.00    +0.060 C 
ATOM     15  S   UNL     1      -0.036   0.979  -1.193  1.00  0.00    -0.132 SA
ATOM     16  C   UNL     1       1.350   0.104  -0.500  1.00  0.00    +0.055 A 
ATOM     17  C   UNL     1       2.639   0.506  -0.907  1.00  0.00    +0.047 A 
ENDROOT
BRANCH   1  18
ATOM     18  N   UNL     1       5.084   0.324  -0.838  1.00  0.00    -0.378 N 
ATOM     19  C   UNL     1       6.266  -0.436  -0.430  1.00  0.00    +0.143 C 
ATOM     20  C   UNL     1       5.220   1.072  -2.088  1.00  0.00    +0.143 C 
ENDBRANCH   1  18
TORSDOF 1
