REMARK SMILES O=c1c(O)c(-c2cc(O)c(O)c(O)c2)oc2cc(O)cc(O)c12
REMARK SMILES IDX 1 1 2 2 3 3 5 4 15 5 16 6 17 7 18 8 20 9 21 10 23 11 4 12
REMARK SMILES IDX 6 14 7 15 14 16 8 17 12 18 10 19 9 20 13 22 11 24 22 26
REMARK SMILES IDX 19 28
REMARK H PARENT 4 13 9 21 13 23 11 25 22 27 19 29
ROOT
ATOM      1  O   UNL     1       2.095  -3.018  -0.584  1.00  0.00    -0.285 OA
ATOM      2  C   UNL     1       1.670  -1.850  -0.381  1.00  0.00    +0.238 A 
ATOM      3  C   UNL     1       0.285  -1.618  -0.426  1.00  0.00    +0.208 A 
ATOM      4  C   UNL     1      -0.202  -0.332  -0.126  1.00  0.00    +0.180 A 
ATOM      5  O   UNL     1       0.645   0.626   0.226  1.00  0.00    -0.452 OA
ATOM      6  C   UNL     1       1.961   0.459   0.276  1.00  0.00    +0.146 A 
ATOM      7  C   UNL     1       2.753   1.534   0.685  1.00  0.00    +0.094 A 
ATOM      8  C   UNL     1       4.138   1.397   0.774  1.00  0.00    +0.123 A 
ATOM      9  C   UNL     1       4.739   0.191   0.420  1.00  0.00    +0.093 A 
ATOM     10  C   UNL     1       3.974  -0.895  -0.030  1.00  0.00    +0.134 A 
ATOM     11  C   UNL     1       2.551  -0.786  -0.066  1.00  0.00    +0.111 A 
ENDROOT
BRANCH   3  12
ATOM     12  O   UNL     1      -0.605  -2.655  -0.723  1.00  0.00    -0.502 OA
ATOM     13  H   UNL     1      -0.296  -3.596  -0.936  1.00  0.00    +0.293 HD
ENDBRANCH   3  12
BRANCH   4  14
ATOM     14  C   UNL     1      -1.647  -0.010  -0.152  1.00  0.00    +0.029 A 
ATOM     15  C   UNL     1      -2.473  -0.441  -1.200  1.00  0.00    +0.062 A 
ATOM     16  C   UNL     1      -2.195   0.786   0.865  1.00  0.00    +0.062 A 
ATOM     17  C   UNL     1      -3.836  -0.116  -1.211  1.00  0.00    +0.162 A 
ATOM     18  C   UNL     1      -3.561   1.105   0.866  1.00  0.00    +0.162 A 
ATOM     19  C   UNL     1      -4.385   0.650  -0.175  1.00  0.00    +0.200 A 
BRANCH  17  20
ATOM     20  O   UNL     1      -4.654  -0.550  -2.251  1.00  0.00    -0.504 OA
ATOM     21  H   UNL     1      -4.286  -1.104  -3.017  1.00  0.00    +0.293 HD
ENDBRANCH  17  20
BRANCH  18  22
ATOM     22  O   UNL     1      -4.104   1.870   1.901  1.00  0.00    -0.504 OA
ATOM     23  H   UNL     1      -3.536   2.209   2.667  1.00  0.00    +0.293 HD
ENDBRANCH  18  22
BRANCH  19  24
ATOM     24  O   UNL     1      -5.747   0.952  -0.194  1.00  0.00    -0.502 OA
ATOM     25  H   UNL     1      -6.199   1.456   0.556  1.00  0.00    +0.293 HD
ENDBRANCH  19  24
ENDBRANCH   4  14
BRANCH  10  26
ATOM     26  O   UNL     1       4.682  -2.026  -0.450  1.00  0.00    -0.507 OA
ATOM     27  H   UNL     1       4.305  -2.744  -1.054  1.00  0.00    +0.293 HD
ENDBRANCH  10  26
BRANCH   8  28
ATOM     28  O   UNL     1       4.928   2.455   1.210  1.00  0.00    -0.508 OA
ATOM     29  H   UNL     1       4.524   3.350   1.464  1.00  0.00    +0.293 HD
ENDBRANCH   8  28
TORSDOF 7
