REMARK SMILES O=c1c(O)c(-c2cc(O)c(O)c(O)c2)oc2cc(O)cc(O)c12
REMARK SMILES IDX 1 1 2 2 3 3 5 4 15 5 16 6 17 7 18 8 20 9 21 10 23 11 4 12
REMARK SMILES IDX 6 14 7 15 14 16 8 17 12 18 10 19 9 20 13 22 11 24 22 26
REMARK SMILES IDX 19 28
REMARK H PARENT 4 13 9 21 13 23 11 25 22 27 19 29
ROOT
ATOM      1  O   UNL     1       1.709  -3.096   1.090  1.00  0.00    -0.285 OA
ATOM      2  C   UNL     1       1.421  -1.967   0.699  1.00  0.00    +0.238 C 
ATOM      3  C   UNL     1       0.005  -1.549   0.588  1.00  0.00    +0.208 C 
ATOM      4  C   UNL     1      -0.266  -0.303   0.158  1.00  0.00    +0.180 C 
ATOM      5  O   UNL     1       0.710   0.626  -0.186  1.00  0.00    -0.452 OA
ATOM      6  C   UNL     1       2.030   0.266  -0.100  1.00  0.00    +0.146 A 
ATOM      7  C   UNL     1       2.975   1.226  -0.462  1.00  0.00    +0.094 A 
ATOM      8  C   UNL     1       4.330   0.914  -0.393  1.00  0.00    +0.123 A 
ATOM      9  C   UNL     1       4.759  -0.340   0.033  1.00  0.00    +0.093 A 
ATOM     10  C   UNL     1       3.810  -1.294   0.394  1.00  0.00    +0.134 A 
ATOM     11  C   UNL     1       2.447  -0.991   0.327  1.00  0.00    +0.111 A 
ENDROOT
BRANCH   3  12
ATOM     12  O   UNL     1      -0.955  -2.475   0.954  1.00  0.00    -0.502 OA
ATOM     13  H   UNL     1      -0.452  -3.257   1.267  1.00  0.00    +0.293 HD
ENDBRANCH   3  12
BRANCH   4  14
ATOM     14  C   UNL     1      -1.640   0.231   0.027  1.00  0.00    +0.029 A 
ATOM     15  C   UNL     1      -1.928   1.524   0.503  1.00  0.00    +0.062 A 
ATOM     16  C   UNL     1      -2.663  -0.509  -0.598  1.00  0.00    +0.062 A 
ATOM     17  C   UNL     1      -3.209   2.047   0.368  1.00  0.00    +0.162 A 
ATOM     18  C   UNL     1      -3.941   0.031  -0.720  1.00  0.00    +0.162 A 
ATOM     19  C   UNL     1      -4.211   1.306  -0.239  1.00  0.00    +0.200 A 
BRANCH  17  20
ATOM     20  O   UNL     1      -3.475   3.301   0.838  1.00  0.00    -0.504 OA
ATOM     21  H   UNL     1      -4.421   3.444   0.634  1.00  0.00    +0.293 HD
ENDBRANCH  17  20
BRANCH  18  22
ATOM     22  O   UNL     1      -4.965  -0.656  -1.309  1.00  0.00    -0.504 OA
ATOM     23  H   UNL     1      -4.636  -1.540  -1.551  1.00  0.00    +0.293 HD
ENDBRANCH  18  22
BRANCH  19  24
ATOM     24  O   UNL     1      -5.462   1.845  -0.358  1.00  0.00    -0.502 OA
ATOM     25  H   UNL     1      -5.981   1.148  -0.809  1.00  0.00    +0.293 HD
ENDBRANCH  19  24
ENDBRANCH   4  14
BRANCH  10  26
ATOM     26  O   UNL     1       4.286  -2.510   0.805  1.00  0.00    -0.507 OA
ATOM     27  H   UNL     1       3.521  -3.083   1.034  1.00  0.00    +0.293 HD
ENDBRANCH  10  26
BRANCH   8  28
ATOM     28  O   UNL     1       5.220   1.881  -0.757  1.00  0.00    -0.508 OA
ATOM     29  H   UNL     1       6.123   1.534  -0.655  1.00  0.00    +0.293 HD
ENDBRANCH   8  28
TORSDOF 7
