REMARK SMILES O=c1c(O)c(-c2ccc(O)c(O)c2)oc2cc(O)cc(O)c12
REMARK SMILES IDX 1 1 2 2 3 3 5 4 14 5 15 6 16 7 17 8 19 9 20 10 22 11 4 12
REMARK SMILES IDX 6 14 7 15 13 16 8 17 11 18 9 19 12 20 10 22 21 24 18 26
REMARK H PARENT 4 13 12 21 10 23 21 25 18 27
ROOT
ATOM      1  O   UNL     1       2.025  -2.787  -1.478  1.00  0.00    -0.285 OA
ATOM      2  C   UNL     1       1.568  -1.760  -0.913  1.00  0.00    +0.238 A 
ATOM      3  C   UNL     1       0.176  -1.583  -0.867  1.00  0.00    +0.208 A 
ATOM      4  C   UNL     1      -0.343  -0.412  -0.287  1.00  0.00    +0.180 A 
ATOM      5  O   UNL     1       0.486   0.523   0.162  1.00  0.00    -0.452 OA
ATOM      6  C   UNL     1       1.808   0.402   0.138  1.00  0.00    +0.146 A 
ATOM      7  C   UNL     1       2.582   1.460   0.620  1.00  0.00    +0.094 A 
ATOM      8  C   UNL     1       3.975   1.379   0.608  1.00  0.00    +0.123 A 
ATOM      9  C   UNL     1       4.597   0.225   0.133  1.00  0.00    +0.093 A 
ATOM     10  C   UNL     1       3.849  -0.865  -0.327  1.00  0.00    +0.134 A 
ATOM     11  C   UNL     1       2.424  -0.773  -0.368  1.00  0.00    +0.111 A 
ENDROOT
BRANCH   3  12
ATOM     12  O   UNL     1      -0.687  -2.533  -1.421  1.00  0.00    -0.502 OA
ATOM     13  H   UNL     1      -0.351  -3.386  -1.852  1.00  0.00    +0.293 HD
ENDBRANCH   3  12
BRANCH   4  14
ATOM     14  C   UNL     1      -1.798  -0.165  -0.182  1.00  0.00    +0.025 A 
ATOM     15  C   UNL     1      -2.683  -1.173   0.238  1.00  0.00    +0.016 A 
ATOM     16  C   UNL     1      -2.303   1.117  -0.458  1.00  0.00    +0.062 A 
ATOM     17  C   UNL     1      -4.051  -0.912   0.346  1.00  0.00    +0.051 A 
ATOM     18  C   UNL     1      -3.677   1.380  -0.353  1.00  0.00    +0.158 A 
ATOM     19  C   UNL     1      -4.554   0.358   0.047  1.00  0.00    +0.157 A 
BRANCH  18  20
ATOM     20  O   UNL     1      -4.171   2.650  -0.642  1.00  0.00    -0.504 OA
ATOM     21  H   UNL     1      -3.556   3.412  -0.909  1.00  0.00    +0.293 HD
ENDBRANCH  18  20
BRANCH  19  22
ATOM     22  O   UNL     1      -5.925   0.586   0.158  1.00  0.00    -0.504 OA
ATOM     23  H   UNL     1      -6.340   1.485  -0.056  1.00  0.00    +0.293 HD
ENDBRANCH  19  22
ENDBRANCH   4  14
BRANCH  10  24
ATOM     24  O   UNL     1       4.574  -2.002  -0.700  1.00  0.00    -0.507 OA
ATOM     25  H   UNL     1       4.187  -2.924  -0.823  1.00  0.00    +0.293 HD
ENDBRANCH  10  24
BRANCH   8  26
ATOM     26  O   UNL     1       4.753   2.439   1.073  1.00  0.00    -0.508 OA
ATOM     27  H   UNL     1       4.331   3.289   1.427  1.00  0.00    +0.293 HD
ENDBRANCH   8  26
TORSDOF 6
