REMARK SMILES O=c1c(O)c(-c2ccc(O)c(O)c2)oc2cc(O)cc(O)c12
REMARK SMILES IDX 1 1 2 2 3 3 5 4 14 5 15 6 16 7 17 8 19 9 20 10 22 11 4 12
REMARK SMILES IDX 6 14 7 15 13 16 8 17 11 18 9 19 12 20 10 22 21 24 18 26
REMARK H PARENT 4 13 12 21 10 23 21 25 18 27
ROOT
ATOM      1  O   UNL     1      -2.258  -1.783   2.165  1.00  0.00    -0.285 OA
ATOM      2  C   UNL     1      -1.703  -1.127   1.287  1.00  0.00    +0.238 C 
ATOM      3  C   UNL     1      -0.234  -0.934   1.308  1.00  0.00    +0.208 C 
ATOM      4  C   UNL     1       0.333  -0.205   0.328  1.00  0.00    +0.180 C 
ATOM      5  O   UNL     1      -0.382   0.389  -0.706  1.00  0.00    -0.452 OA
ATOM      6  C   UNL     1      -1.742   0.222  -0.757  1.00  0.00    +0.146 A 
ATOM      7  C   UNL     1      -2.417   0.826  -1.817  1.00  0.00    +0.094 A 
ATOM      8  C   UNL     1      -3.799   0.690  -1.917  1.00  0.00    +0.123 A 
ATOM      9  C   UNL     1      -4.519  -0.040  -0.975  1.00  0.00    +0.093 A 
ATOM     10  C   UNL     1      -3.840  -0.641   0.082  1.00  0.00    +0.134 A 
ATOM     11  C   UNL     1      -2.451  -0.510   0.191  1.00  0.00    +0.111 A 
ENDROOT
BRANCH   3  12
ATOM     12  O   UNL     1       0.460  -1.510   2.356  1.00  0.00    -0.502 OA
ATOM     13  H   UNL     1      -0.224  -1.928   2.921  1.00  0.00    +0.293 HD
ENDBRANCH   3  12
BRANCH   4  14
ATOM     14  C   UNL     1       1.785   0.071   0.256  1.00  0.00    +0.025 A 
ATOM     15  C   UNL     1       2.231   1.373  -0.041  1.00  0.00    +0.016 A 
ATOM     16  C   UNL     1       2.738  -0.946   0.438  1.00  0.00    +0.062 A 
ATOM     17  C   UNL     1       3.595   1.662  -0.140  1.00  0.00    +0.051 A 
ATOM     18  C   UNL     1       4.095  -0.649   0.342  1.00  0.00    +0.158 A 
ATOM     19  C   UNL     1       4.516   0.645   0.054  1.00  0.00    +0.157 A 
BRANCH  18  20
ATOM     20  O   UNL     1       5.058  -1.604   0.523  1.00  0.00    -0.504 OA
ATOM     21  H   UNL     1       4.614  -2.437   0.762  1.00  0.00    +0.293 HD
ENDBRANCH  18  20
BRANCH  19  22
ATOM     22  O   UNL     1       5.849   0.925  -0.041  1.00  0.00    -0.504 OA
ATOM     23  H   UNL     1       6.290   0.069   0.131  1.00  0.00    +0.293 HD
ENDBRANCH  19  22
ENDBRANCH   4  14
BRANCH  10  24
ATOM     24  O   UNL     1      -4.596  -1.346   0.979  1.00  0.00    -0.507 OA
ATOM     25  H   UNL     1      -4.000  -1.711   1.671  1.00  0.00    +0.293 HD
ENDBRANCH  10  24
BRANCH   8  26
ATOM     26  O   UNL     1      -4.420   1.297  -2.968  1.00  0.00    -0.508 OA
ATOM     27  H   UNL     1      -5.375   1.122  -2.915  1.00  0.00    +0.293 HD
ENDBRANCH   8  26
TORSDOF 6
