REMARK SMILES Oc1ccc(/C=C/c2cc(O)cc(O)c2)cc1
REMARK SMILES IDX 6 1 7 2 5 3 2 4 3 5 17 6 4 7 16 8 1 9 8 11 9 12 15 13 10 14
REMARK SMILES IDX 13 15 12 16 11 17 14 19
REMARK H PARENT 1 10 11 18 14 20
ROOT
ATOM      1  C   UNL     1       0.563  -0.489   0.067  1.00  0.00    +0.009 C 
ATOM      2  C   UNL     1      -0.335   0.499  -0.081  1.00  0.00    +0.009 C 
ENDROOT
BRANCH   1   3
ATOM      3  C   UNL     1       2.017  -0.279   0.034  1.00  0.00    -0.025 A 
ATOM      4  C   UNL     1       4.799   0.018  -0.013  1.00  0.00    +0.115 A 
ATOM      5  C   UNL     1       4.015   0.975   0.619  1.00  0.00    +0.047 A 
ATOM      6  C   UNL     1       4.217  -1.093  -0.615  1.00  0.00    +0.047 A 
ATOM      7  C   UNL     1       2.626   0.824   0.648  1.00  0.00    +0.012 A 
ATOM      8  C   UNL     1       2.828  -1.242  -0.584  1.00  0.00    +0.012 A 
BRANCH   4   9
ATOM      9  O   UNL     1       6.149   0.204  -0.017  1.00  0.00    -0.508 OA
ATOM     10  H   UNL     1       6.562  -0.540  -0.484  1.00  0.00    +0.293 HD
ENDBRANCH   4   9
ENDBRANCH   1   3
BRANCH   2  11
ATOM     11  C   UNL     1      -1.789   0.285  -0.067  1.00  0.00    -0.018 A 
ATOM     12  C   UNL     1      -2.403  -0.604   0.826  1.00  0.00    +0.054 A 
ATOM     13  C   UNL     1      -2.593   1.034  -0.938  1.00  0.00    +0.054 A 
ATOM     14  C   UNL     1      -3.787  -0.755   0.824  1.00  0.00    +0.119 A 
ATOM     15  C   UNL     1      -3.977   0.867  -0.925  1.00  0.00    +0.119 A 
ATOM     16  C   UNL     1      -4.584  -0.025  -0.050  1.00  0.00    +0.092 A 
BRANCH  14  17
ATOM     17  O   UNL     1      -4.332  -1.638   1.710  1.00  0.00    -0.508 OA
ATOM     18  H   UNL     1      -5.297  -1.630   1.599  1.00  0.00    +0.293 HD
ENDBRANCH  14  17
BRANCH  15  19
ATOM     19  O   UNL     1      -4.785   1.574  -1.768  1.00  0.00    -0.508 OA
ATOM     20  H   UNL     1      -4.230   2.147  -2.324  1.00  0.00    +0.293 HD
ENDBRANCH  15  19
ENDBRANCH   2  11
TORSDOF 5
