REMARK SMILES Oc1ccc(/C=C/c2cc(O)cc(O)c2)cc1
REMARK SMILES IDX 6 1 7 2 5 3 2 4 3 5 17 6 4 7 16 8 1 9 8 11 9 12 15 13 10 14
REMARK SMILES IDX 13 15 12 16 11 17 14 19
REMARK H PARENT 1 10 11 18 14 20
ROOT
ATOM      1  C   UNL     1      -0.568  -0.439  -0.402  1.00  0.00    +0.009 C 
ATOM      2  C   UNL     1       0.333   0.314   0.249  1.00  0.00    +0.009 C 
ENDROOT
BRANCH   1   3
ATOM      3  C   UNL     1      -2.029  -0.383  -0.142  1.00  0.00    -0.025 A 
ATOM      4  C   UNL     1      -4.814  -0.360   0.282  1.00  0.00    +0.115 A 
ATOM      5  C   UNL     1      -4.200  -1.474  -0.297  1.00  0.00    +0.047 A 
ATOM      6  C   UNL     1      -4.039   0.749   0.642  1.00  0.00    +0.047 A 
ATOM      7  C   UNL     1      -2.819  -1.484  -0.513  1.00  0.00    +0.012 A 
ATOM      8  C   UNL     1      -2.657   0.743   0.428  1.00  0.00    +0.012 A 
BRANCH   4   9
ATOM      9  O   UNL     1      -6.191  -0.364   0.492  1.00  0.00    -0.508 OA
ATOM     10  H   UNL     1      -6.665   0.428   0.909  1.00  0.00    +0.293 HD
ENDBRANCH   4   9
ENDBRANCH   1   3
BRANCH   2  11
ATOM     11  C   UNL     1       1.793   0.258  -0.012  1.00  0.00    -0.018 A 
ATOM     12  C   UNL     1       2.421  -0.874  -0.570  1.00  0.00    +0.054 A 
ATOM     13  C   UNL     1       2.582   1.364   0.347  1.00  0.00    +0.054 A 
ATOM     14  C   UNL     1       3.804  -0.884  -0.787  1.00  0.00    +0.119 A 
ATOM     15  C   UNL     1       3.966   1.355   0.128  1.00  0.00    +0.119 A 
ATOM     16  C   UNL     1       4.573   0.233  -0.441  1.00  0.00    +0.092 A 
BRANCH  14  17
ATOM     17  O   UNL     1       4.403  -2.013  -1.342  1.00  0.00    -0.508 OA
ATOM     18  H   UNL     1       5.401  -2.054  -1.510  1.00  0.00    +0.293 HD
ENDBRANCH  14  17
BRANCH  15  19
ATOM     19  O   UNL     1       4.747   2.456   0.475  1.00  0.00    -0.508 OA
ATOM     20  H   UNL     1       4.339   3.285   0.890  1.00  0.00    +0.293 HD
ENDBRANCH  15  19
ENDBRANCH   2  11
TORSDOF 5
