REMARK SMILES CCN(C)C(=O)Oc1cccc([C@@H](C)N(C)C)c1
REMARK SMILES IDX 7 1 5 2 6 3 3 4 4 5 2 6 1 7 8 8 9 9 18 10 10 11 12 12 11 13
REMARK SMILES IDX 13 14 14 15 15 16 16 17 17 18
REMARK H PARENT
ROOT
ATOM      1  O   UNL     1       1.535  -0.382   0.352  1.00  0.00    -0.410 OA
ENDROOT
BRANCH   1   2
ATOM      2  C   UNL     1       2.763   0.246   0.594  1.00  0.00    +0.414 C 
ATOM      3  O   UNL     1       2.832   1.504   0.636  1.00  0.00    -0.224 OA
BRANCH   2   4
ATOM      4  N   UNL     1       3.934  -0.552   0.847  1.00  0.00    -0.311 N 
ATOM      5  C   UNL     1       3.869  -2.002   0.668  1.00  0.00    +0.150 C 
BRANCH   4   6
ATOM      6  C   UNL     1       5.138   0.057   1.440  1.00  0.00    +0.119 C 
ATOM      7  C   UNL     1       5.963   0.778   0.373  1.00  0.00    +0.027 C 
ENDBRANCH   4   6
ENDBRANCH   2   4
ENDBRANCH   1   2
BRANCH   1   8
ATOM      8  C   UNL     1       0.438   0.212  -0.287  1.00  0.00    +0.133 A 
ATOM      9  C   UNL     1       0.594   1.215  -1.261  1.00  0.00    +0.047 A 
ATOM     10  C   UNL     1      -0.849  -0.246   0.027  1.00  0.00    +0.052 A 
ATOM     11  C   UNL     1      -0.524   1.752  -1.899  1.00  0.00    +0.004 A 
ATOM     12  C   UNL     1      -1.982   0.299  -0.605  1.00  0.00    -0.027 A 
ATOM     13  C   UNL     1      -1.806   1.300  -1.573  1.00  0.00    +0.005 A 
BRANCH  12  14
ATOM     14  C   UNL     1      -3.375  -0.207  -0.267  1.00  0.00    +0.083 C 
ATOM     15  C   UNL     1      -3.513  -1.638  -0.824  1.00  0.00    +0.030 C 
BRANCH  14  16
ATOM     16  N   UNL     1      -3.616  -0.149   1.202  1.00  0.00    -0.303 NA
ATOM     17  C   UNL     1      -3.543   1.246   1.686  1.00  0.00    +0.105 C 
ATOM     18  C   UNL     1      -4.941  -0.693   1.559  1.00  0.00    +0.105 C 
ENDBRANCH  14  16
ENDBRANCH  12  14
ENDBRANCH   1   8
TORSDOF 6
