REMARK SMILES CCN(C)C(=O)Oc1cccc([C@H](C)N(C)C)c1
REMARK SMILES IDX 7 1 5 2 6 3 3 4 4 5 2 6 1 7 8 8 9 9 18 10 10 11 12 12 11 13
REMARK SMILES IDX 13 14 14 15 15 16 16 17 17 18
REMARK H PARENT
ROOT
ATOM      1  O   UNL     1      -2.016  -0.053  -0.301  1.00  0.00    -0.410 OA
ENDROOT
BRANCH   1   2
ATOM      2  C   UNL     1      -2.432  -0.883   0.740  1.00  0.00    +0.414 C 
ATOM      3  O   UNL     1      -1.842  -1.002   1.810  1.00  0.00    -0.224 OA
BRANCH   2   4
ATOM      4  N   UNL     1      -3.607  -1.564   0.433  1.00  0.00    -0.311 N 
ATOM      5  C   UNL     1      -4.241  -2.362   1.466  1.00  0.00    +0.150 C 
BRANCH   4   6
ATOM      6  C   UNL     1      -4.378  -1.286  -0.776  1.00  0.00    +0.119 C 
ATOM      7  C   UNL     1      -5.295  -0.084  -0.613  1.00  0.00    +0.027 C 
ENDBRANCH   4   6
ENDBRANCH   2   4
ENDBRANCH   1   2
BRANCH   1   8
ATOM      8  C   UNL     1      -0.833   0.676  -0.111  1.00  0.00    +0.133 A 
ATOM      9  C   UNL     1      -0.907   2.059  -0.250  1.00  0.00    +0.047 A 
ATOM     10  C   UNL     1       0.385   0.035   0.118  1.00  0.00    +0.052 A 
ATOM     11  C   UNL     1       0.252   2.820  -0.124  1.00  0.00    +0.004 A 
ATOM     12  C   UNL     1       1.558   0.794   0.250  1.00  0.00    -0.027 A 
ATOM     13  C   UNL     1       1.475   2.193   0.129  1.00  0.00    +0.005 A 
BRANCH  12  14
ATOM     14  C   UNL     1       2.889   0.101   0.541  1.00  0.00    +0.083 C 
ATOM     15  C   UNL     1       3.252   0.396   2.009  1.00  0.00    +0.030 C 
BRANCH  14  16
ATOM     16  N   UNL     1       3.950   0.499  -0.424  1.00  0.00    -0.303 NA
ATOM     17  C   UNL     1       5.265  -0.038  -0.065  1.00  0.00    +0.105 C 
ATOM     18  C   UNL     1       3.614   0.058  -1.785  1.00  0.00    +0.105 C 
ENDBRANCH  14  16
ENDBRANCH  12  14
ENDBRANCH   1   8
TORSDOF 6
