REMARK SMILES CCN(C)C(=O)Oc1cccc([C@@H](C)N(C)C)c1
REMARK SMILES IDX 7 1 5 2 6 3 3 4 4 5 2 6 1 7 8 8 9 9 18 10 10 11 12 12 11 13
REMARK SMILES IDX 13 14 14 15 15 16 16 17 17 18
REMARK H PARENT
ROOT
ATOM      1  O   UNL     1       1.889   0.933   0.971  1.00  0.00    -0.410 OA
ENDROOT
BRANCH   1   2
ATOM      2  C   UNL     1       2.538   0.501  -0.190  1.00  0.00    +0.414 C 
ATOM      3  O   UNL     1       2.033   0.740  -1.321  1.00  0.00    -0.224 OA
BRANCH   2   4
ATOM      4  N   UNL     1       3.809  -0.165  -0.092  1.00  0.00    -0.311 N 
ATOM      5  C   UNL     1       4.270  -0.634   1.218  1.00  0.00    +0.150 C 
BRANCH   4   6
ATOM      6  C   UNL     1       4.630  -0.383  -1.291  1.00  0.00    +0.119 C 
ATOM      7  C   UNL     1       4.134  -1.599  -2.067  1.00  0.00    +0.027 C 
ENDBRANCH   4   6
ENDBRANCH   2   4
ENDBRANCH   1   2
BRANCH   1   8
ATOM      8  C   UNL     1       0.539   1.294   1.042  1.00  0.00    +0.133 A 
ATOM      9  C   UNL     1       0.158   2.298   1.937  1.00  0.00    +0.047 A 
ATOM     10  C   UNL     1      -0.441   0.657   0.260  1.00  0.00    +0.052 A 
ATOM     11  C   UNL     1      -1.176   2.696   2.024  1.00  0.00    +0.004 A 
ATOM     12  C   UNL     1      -1.786   1.061   0.333  1.00  0.00    -0.027 A 
ATOM     13  C   UNL     1      -2.143   2.086   1.221  1.00  0.00    +0.005 A 
BRANCH  12  14
ATOM     14  C   UNL     1      -2.848   0.370  -0.506  1.00  0.00    +0.083 C 
ATOM     15  C   UNL     1      -2.476   0.516  -1.999  1.00  0.00    +0.030 C 
BRANCH  14  16
ATOM     16  N   UNL     1      -3.000  -1.056  -0.097  1.00  0.00    -0.303 NA
ATOM     17  C   UNL     1      -3.451  -1.151   1.307  1.00  0.00    +0.105 C 
ATOM     18  C   UNL     1      -3.970  -1.769  -0.952  1.00  0.00    +0.105 C 
ENDBRANCH  14  16
ENDBRANCH  12  14
ENDBRANCH   1   8
TORSDOF 6
