REMARK SMILES O=C(/C=C/c1ccc(O)c(O)c1)O[C@@H](Cc1ccc(O)c(O)c1)C(=O)O
REMARK SMILES IDX 13 1 2 2 1 3 3 4 4 5 5 6 6 7 12 8 7 9 10 10 8 11 11 12 9 14
REMARK SMILES IDX 14 16 24 17 25 18 26 19 15 21 16 22 17 23 23 24 18 25 21 26
REMARK SMILES IDX 19 27 22 28 20 30
REMARK H PARENT 11 13 9 15 26 20 22 29 20 31
ROOT
ATOM      1  O   UNL     1       0.797  -0.470  -2.148  1.00  0.00    -0.447 OA
ENDROOT
BRANCH   1   2
ATOM      2  C   UNL     1      -0.279   0.272  -2.649  1.00  0.00    +0.331 C 
ATOM      3  O   UNL     1      -0.142   0.981  -3.683  1.00  0.00    -0.247 OA
BRANCH   2   4
ATOM      4  C   UNL     1      -1.588   0.228  -1.980  1.00  0.00    +0.094 C 
ATOM      5  C   UNL     1      -1.751  -0.361  -0.789  1.00  0.00    +0.016 C 
BRANCH   5   6
ATOM      6  C   UNL     1      -3.046  -0.398  -0.069  1.00  0.00    -0.021 A 
ATOM      7  C   UNL     1      -4.281  -0.328  -0.742  1.00  0.00    +0.012 A 
ATOM      8  C   UNL     1      -3.040  -0.543   1.328  1.00  0.00    +0.058 A 
ATOM      9  C   UNL     1      -5.480  -0.377  -0.026  1.00  0.00    +0.051 A 
ATOM     10  C   UNL     1      -4.240  -0.590   2.048  1.00  0.00    +0.157 A 
ATOM     11  C   UNL     1      -5.466  -0.506   1.369  1.00  0.00    +0.157 A 
BRANCH  10  12
ATOM     12  O   UNL     1      -4.194  -0.721   3.435  1.00  0.00    -0.504 OA
ATOM     13  H   UNL     1      -5.034  -0.764   3.999  1.00  0.00    +0.293 HD
ENDBRANCH  10  12
BRANCH  11  14
ATOM     14  O   UNL     1      -6.665  -0.554   2.080  1.00  0.00    -0.504 OA
ATOM     15  H   UNL     1      -7.562  -0.497   1.614  1.00  0.00    +0.293 HD
ENDBRANCH  11  14
ENDBRANCH   5   6
ENDBRANCH   2   4
ENDBRANCH   1   2
BRANCH   1  16
ATOM     16  C   UNL     1       2.138  -0.327  -2.618  1.00  0.00    +0.290 C 
BRANCH  16  17
ATOM     17  C   UNL     1       2.942  -1.537  -2.241  1.00  0.00    +0.345 C 
ATOM     18  O   UNL     1       2.643  -2.208  -1.216  1.00  0.00    -0.248 OA
BRANCH  17  19
ATOM     19  O   UNL     1       4.052  -1.891  -3.001  1.00  0.00    -0.478 OA
ATOM     20  H   UNL     1       4.618  -2.693  -2.754  1.00  0.00    +0.296 HD
ENDBRANCH  17  19
ENDBRANCH  16  17
BRANCH  16  21
ATOM     21  C   UNL     1       2.777   0.960  -2.059  1.00  0.00    +0.093 C 
BRANCH  21  22
ATOM     22  C   UNL     1       2.827   0.971  -0.549  1.00  0.00    -0.040 A 
ATOM     23  C   UNL     1       1.703   1.351   0.197  1.00  0.00    +0.008 A 
ATOM     24  C   UNL     1       3.987   0.558   0.123  1.00  0.00    +0.054 A 
ATOM     25  C   UNL     1       1.739   1.320   1.593  1.00  0.00    +0.050 A 
ATOM     26  C   UNL     1       4.036   0.530   1.523  1.00  0.00    +0.157 A 
ATOM     27  C   UNL     1       2.897   0.917   2.267  1.00  0.00    +0.157 A 
BRANCH  26  28
ATOM     28  O   UNL     1       5.224   0.110   2.126  1.00  0.00    -0.504 OA
ATOM     29  H   UNL     1       5.358   0.038   3.124  1.00  0.00    +0.293 HD
ENDBRANCH  26  28
BRANCH  27  30
ATOM     30  O   UNL     1       2.872   0.916   3.663  1.00  0.00    -0.504 OA
ATOM     31  H   UNL     1       3.664   0.681   4.241  1.00  0.00    +0.293 HD
ENDBRANCH  27  30
ENDBRANCH  21  22
ENDBRANCH  16  21
ENDBRANCH   1  16
TORSDOF 12
