REMARK SMILES O=C(O)/C=C/c1ccc(O)c(O)c1OC(=O)[C@@H](O)Cc1ccc(O)c(O)c1
REMARK SMILES IDX 15 1 16 2 14 3 13 4 6 5 7 6 8 7 11 8 9 9 5 10 4 11 2 12 1 13
REMARK SMILES IDX 3 14 12 16 10 18 17 20 19 21 20 22 21 23 27 24 22 25 25 26
REMARK SMILES IDX 23 27 26 28 24 30 18 32
REMARK H PARENT 3 15 12 17 10 19 26 29 24 31 18 33
ROOT
ATOM      1  C   UNL     1       0.012  -1.063  -0.774  1.00  0.00    +0.340 C 
ATOM      2  O   UNL     1      -0.342  -2.043  -0.062  1.00  0.00    -0.249 OA
ENDROOT
BRANCH   1   3
ATOM      3  O   UNL     1      -0.763   0.102  -0.799  1.00  0.00    -0.420 OA
BRANCH   3   4
ATOM      4  C   UNL     1      -1.729   0.427   0.162  1.00  0.00    +0.183 A 
ATOM      5  C   UNL     1      -3.026   0.816  -0.247  1.00  0.00    +0.022 A 
ATOM      6  C   UNL     1      -4.006   1.061   0.726  1.00  0.00    +0.016 A 
ATOM      7  C   UNL     1      -3.696   0.979   2.083  1.00  0.00    +0.051 A 
ATOM      8  C   UNL     1      -1.412   0.378   1.535  1.00  0.00    +0.201 A 
ATOM      9  C   UNL     1      -2.400   0.650   2.494  1.00  0.00    +0.161 A 
BRANCH   5  10
ATOM     10  C   UNL     1      -3.424   0.899  -1.671  1.00  0.00    +0.019 C 
ATOM     11  C   UNL     1      -2.625   1.386  -2.626  1.00  0.00    +0.094 C 
BRANCH  11  12
ATOM     12  C   UNL     1      -3.056   1.472  -4.031  1.00  0.00    +0.328 C 
ATOM     13  O   UNL     1      -2.240   1.869  -4.906  1.00  0.00    -0.247 OA
BRANCH  12  14
ATOM     14  O   UNL     1      -4.351   1.112  -4.405  1.00  0.00    -0.478 OA
ATOM     15  H   UNL     1      -4.646   1.168  -5.374  1.00  0.00    +0.297 HD
ENDBRANCH  12  14
ENDBRANCH  11  12
ENDBRANCH   5  10
BRANCH   8  16
ATOM     16  O   UNL     1      -0.108   0.081   1.932  1.00  0.00    -0.502 OA
ATOM     17  H   UNL     1       0.164   0.041   2.906  1.00  0.00    +0.293 HD
ENDBRANCH   8  16
BRANCH   9  18
ATOM     18  O   UNL     1      -2.087   0.599   3.852  1.00  0.00    -0.504 OA
ATOM     19  H   UNL     1      -2.777   0.801   4.565  1.00  0.00    +0.293 HD
ENDBRANCH   9  18
ENDBRANCH   3   4
ENDBRANCH   1   3
BRANCH   1  20
ATOM     20  C   UNL     1       1.195  -1.190  -1.702  1.00  0.00    +0.228 C 
BRANCH  20  21
ATOM     21  C   UNL     1       2.376  -1.948  -1.061  1.00  0.00    +0.079 C 
BRANCH  21  22
ATOM     22  C   UNL     1       2.893  -1.288   0.195  1.00  0.00    -0.041 A 
ATOM     23  C   UNL     1       3.763  -0.189   0.114  1.00  0.00    +0.008 A 
ATOM     24  C   UNL     1       2.505  -1.765   1.459  1.00  0.00    +0.054 A 
ATOM     25  C   UNL     1       4.237   0.423   1.277  1.00  0.00    +0.050 A 
ATOM     26  C   UNL     1       2.975  -1.153   2.626  1.00  0.00    +0.157 A 
ATOM     27  C   UNL     1       3.844  -0.052   2.537  1.00  0.00    +0.157 A 
BRANCH  26  28
ATOM     28  O   UNL     1       2.565  -1.651   3.863  1.00  0.00    -0.504 OA
ATOM     29  H   UNL     1       2.899  -1.260   4.739  1.00  0.00    +0.293 HD
ENDBRANCH  26  28
BRANCH  27  30
ATOM     30  O   UNL     1       4.313   0.565   3.696  1.00  0.00    -0.504 OA
ATOM     31  H   UNL     1       4.940   1.362   3.656  1.00  0.00    +0.293 HD
ENDBRANCH  27  30
ENDBRANCH  21  22
ENDBRANCH  20  21
BRANCH  20  32
ATOM     32  O   UNL     1       1.628   0.081  -2.120  1.00  0.00    -0.381 OA
ATOM     33  H   UNL     1       0.976   0.400  -2.796  1.00  0.00    +0.211 HD
ENDBRANCH  20  32
ENDBRANCH   1  20
TORSDOF 13
