REMARK SMILES CCC(C)(C)C(=O)N[C@@H](C)C(=O)N[C@H]1CCc2ccccc2C1
REMARK SMILES IDX 6 1 7 2 8 3 3 5 4 6 5 7 2 8 1 9 9 10 10 11 11 12 12 13 13 14
REMARK SMILES IDX 14 16 15 17 23 18 16 19 22 20 17 21 21 22 18 23 20 24 19 25
REMARK H PARENT 8 4 13 15
ROOT
ATOM      1  C   UNL     1      -3.362  -0.761   0.434  1.00  0.00    +0.226 C 
ATOM      2  O   UNL     1      -3.247  -1.788   1.161  1.00  0.00    -0.274 OA
ATOM      3  N   UNL     1      -2.393  -0.513  -0.601  1.00  0.00    -0.344 N 
ATOM      4  H   UNL     1      -2.542   0.287  -1.256  1.00  0.00    +0.164 HD
ENDROOT
BRANCH   1   5
ATOM      5  C   UNL     1      -4.533   0.197   0.642  1.00  0.00    +0.043 C 
ATOM      6  C   UNL     1      -3.968   1.615   0.884  1.00  0.00    +0.021 C 
ATOM      7  C   UNL     1      -5.352  -0.225   1.889  1.00  0.00    +0.021 C 
BRANCH   5   8
ATOM      8  C   UNL     1      -5.429   0.153  -0.633  1.00  0.00    +0.013 C 
ATOM      9  C   UNL     1      -6.653   1.077  -0.606  1.00  0.00    +0.005 C 
ENDBRANCH   5   8
ENDBRANCH   1   5
BRANCH   3  10
ATOM     10  C   UNL     1      -1.164  -1.298  -0.758  1.00  0.00    +0.168 C 
ATOM     11  C   UNL     1      -1.090  -1.864  -2.175  1.00  0.00    +0.041 C 
BRANCH  10  12
ATOM     12  C   UNL     1       0.042  -0.440  -0.475  1.00  0.00    +0.242 C 
ATOM     13  O   UNL     1       0.011   0.794  -0.735  1.00  0.00    -0.273 OA
ATOM     14  N   UNL     1       1.244  -1.041   0.032  1.00  0.00    -0.351 N 
ATOM     15  H   UNL     1       1.283  -2.083   0.116  1.00  0.00    +0.163 HD
BRANCH  14  16
ATOM     16  C   UNL     1       2.463  -0.266   0.279  1.00  0.00    +0.086 C 
ATOM     17  C   UNL     1       3.298  -0.933   1.378  1.00  0.00    +0.030 C 
ATOM     18  C   UNL     1       3.280  -0.162  -1.017  1.00  0.00    +0.060 C 
ATOM     19  C   UNL     1       4.517  -0.072   1.718  1.00  0.00    +0.038 C 
ATOM     20  C   UNL     1       4.671   0.384  -0.790  1.00  0.00    -0.043 A 
ATOM     21  C   UNL     1       5.283   0.353   0.487  1.00  0.00    -0.045 A 
ATOM     22  C   UNL     1       5.411   0.832  -1.897  1.00  0.00    +0.004 A 
ATOM     23  C   UNL     1       6.601   0.816   0.633  1.00  0.00    +0.004 A 
ATOM     24  C   UNL     1       6.725   1.276  -1.738  1.00  0.00    +0.000 A 
ATOM     25  C   UNL     1       7.319   1.270  -0.475  1.00  0.00    +0.000 A 
ENDBRANCH  14  16
ENDBRANCH  10  12
ENDBRANCH   3  10
TORSDOF 5
