REMARK SMILES Nc1c2c(nc3ccccc13)CCCC2
REMARK SMILES IDX 1 1 2 4 3 5 11 6 4 7 15 8 10 9 6 10 5 11 12 12 14 13 9 14
REMARK SMILES IDX 7 15 13 16 8 17
REMARK H PARENT 1 2 1 3
ROOT
ATOM      1  N   UNL     1       0.567   2.522  -0.401  1.00  0.00    -0.398 N 
ATOM      2  H   UNL     1       1.467   2.944  -0.197  1.00  0.00    +0.156 HD
ATOM      3  H   UNL     1      -0.181   3.066   0.012  1.00  0.00    +0.156 HD
ENDROOT
BRANCH   1   4
ATOM      4  C   UNL     1       0.517   1.138  -0.100  1.00  0.00    +0.046 A 
ATOM      5  C   UNL     1      -0.726   0.522   0.158  1.00  0.00    -0.003 A 
ATOM      6  C   UNL     1       1.676   0.326  -0.266  1.00  0.00    +0.023 A 
ATOM      7  C   UNL     1      -0.744  -0.866   0.322  1.00  0.00    +0.046 A 
ATOM      8  C   UNL     1      -2.012   1.316   0.195  1.00  0.00    +0.039 C 
ATOM      9  C   UNL     1       2.955   0.818  -0.634  1.00  0.00    +0.012 A 
ATOM     10  C   UNL     1       1.536  -1.059  -0.048  1.00  0.00    +0.073 A 
ATOM     11  N   UNL     1       0.367  -1.635   0.256  1.00  0.00    -0.252 NA
ATOM     12  C   UNL     1      -2.016  -1.615   0.627  1.00  0.00    +0.056 C 
ATOM     13  C   UNL     1      -3.211   0.560   0.767  1.00  0.00    +0.005 C 
ATOM     14  C   UNL     1       4.058  -0.029  -0.752  1.00  0.00    +0.001 A 
ATOM     15  C   UNL     1       2.649  -1.882  -0.164  1.00  0.00    +0.029 A 
ATOM     16  C   UNL     1      -3.270  -0.855   0.214  1.00  0.00    +0.007 C 
ATOM     17  C   UNL     1       3.905  -1.384  -0.510  1.00  0.00    +0.002 A 
ENDBRANCH   1   4
TORSDOF 1
