REMARK SMILES Nc1c2c(nc3ccccc13)CCCC2
REMARK SMILES IDX 1 1 2 4 11 5 3 6 10 7 6 8 4 9 15 10 9 11 7 12 5 13 12 14
REMARK SMILES IDX 14 15 8 16 13 17
REMARK H PARENT 1 2 1 3
ROOT
ATOM      1  N   UNL     1       0.536  -2.536  -0.431  1.00  0.00    -0.398 N 
ATOM      2  H   UNL     1       1.302  -3.132  -0.050  1.00  0.00    +0.156 HD
ATOM      3  H   UNL     1      -0.237  -3.033  -0.924  1.00  0.00    +0.156 HD
ENDROOT
BRANCH   1   4
ATOM      4  C   UNL     1       0.495  -1.115  -0.206  1.00  0.00    +0.046 A 
ATOM      5  C   UNL     1       1.692  -0.371  -0.055  1.00  0.00    +0.023 A 
ATOM      6  C   UNL     1      -0.754  -0.448  -0.129  1.00  0.00    -0.003 A 
ATOM      7  C   UNL     1       2.974  -0.955  -0.155  1.00  0.00    +0.012 A 
ATOM      8  C   UNL     1       1.603   1.022   0.176  1.00  0.00    +0.073 A 
ATOM      9  C   UNL     1      -0.772   0.954   0.060  1.00  0.00    +0.046 A 
ATOM     10  C   UNL     1      -2.051  -1.218  -0.317  1.00  0.00    +0.039 C 
ATOM     11  C   UNL     1       4.124  -0.177   0.008  1.00  0.00    +0.001 A 
ATOM     12  C   UNL     1       2.761   1.791   0.340  1.00  0.00    +0.029 A 
ATOM     13  N   UNL     1       0.393   1.629   0.226  1.00  0.00    -0.252 NA
ATOM     14  C   UNL     1      -2.057   1.730   0.185  1.00  0.00    +0.056 C 
ATOM     15  C   UNL     1      -3.296  -0.439   0.118  1.00  0.00    +0.005 C 
ATOM     16  C   UNL     1       4.018   1.191   0.260  1.00  0.00    +0.002 A 
ATOM     17  C   UNL     1      -3.250   0.988  -0.417  1.00  0.00    +0.007 C 
ENDBRANCH   1   4
TORSDOF 1
