REMARK SMILES Nc1c2c(nc3ccccc13)CCCC2
REMARK SMILES IDX 1 1 2 4 3 5 11 6 4 7 15 8 10 9 6 10 5 11 12 12 14 13 9 14
REMARK SMILES IDX 7 15 13 16 8 17
REMARK H PARENT 1 2 1 3
ROOT
ATOM      1  N   UNL     1       0.679  -2.479  -0.566  1.00  0.00    -0.398 N 
ATOM      2  H   UNL     1       0.776  -2.912   0.351  1.00  0.00    +0.156 HD
ATOM      3  H   UNL     1      -0.085  -2.908  -1.077  1.00  0.00    +0.156 HD
ENDROOT
BRANCH   1   4
ATOM      4  C   UNL     1       0.550  -1.074  -0.432  1.00  0.00    +0.046 A 
ATOM      5  C   UNL     1      -0.710  -0.466  -0.393  1.00  0.00    -0.003 A 
ATOM      6  C   UNL     1       1.699  -0.299  -0.127  1.00  0.00    +0.023 A 
ATOM      7  C   UNL     1      -0.760   0.913  -0.172  1.00  0.00    +0.046 A 
ATOM      8  C   UNL     1      -2.020  -1.169  -0.634  1.00  0.00    +0.039 C 
ATOM      9  C   UNL     1       3.005  -0.840  -0.071  1.00  0.00    +0.012 A 
ATOM     10  C   UNL     1       1.524   1.082   0.110  1.00  0.00    +0.073 A 
ATOM     11  N   UNL     1       0.325   1.679   0.072  1.00  0.00    -0.252 NA
ATOM     12  C   UNL     1      -2.098   1.603  -0.231  1.00  0.00    +0.056 C 
ATOM     13  C   UNL     1      -3.109  -0.688   0.332  1.00  0.00    +0.005 C 
ATOM     14  C   UNL     1       4.108  -0.039   0.221  1.00  0.00    +0.001 A 
ATOM     15  C   UNL     1       2.639   1.859   0.396  1.00  0.00    +0.029 A 
ATOM     16  C   UNL     1      -3.141   0.827   0.568  1.00  0.00    +0.007 C 
ATOM     17  C   UNL     1       3.925   1.316   0.456  1.00  0.00    +0.002 A 
ENDBRANCH   1   4
TORSDOF 1
