REMARK SMILES Nc1c2c(nc3ccccc13)CCCC2
REMARK SMILES IDX 1 1 2 4 11 5 3 6 10 7 6 8 15 9 4 10 9 11 7 12 5 13 14 14
REMARK SMILES IDX 12 15 8 16 13 17
REMARK H PARENT 1 2 1 3
ROOT
ATOM      1  N   UNL     1       0.608  -2.532   0.213  1.00  0.00    -0.398 N 
ATOM      2  H   UNL     1      -0.126  -3.059   0.733  1.00  0.00    +0.156 HD
ATOM      3  H   UNL     1       1.364  -3.101  -0.226  1.00  0.00    +0.156 HD
ENDROOT
BRANCH   1   4
ATOM      4  C   UNL     1       0.525  -1.107   0.029  1.00  0.00    +0.046 A 
ATOM      5  C   UNL     1       1.697  -0.332  -0.164  1.00  0.00    +0.023 A 
ATOM      6  C   UNL     1      -0.740  -0.466   0.036  1.00  0.00    -0.003 A 
ATOM      7  C   UNL     1       2.994  -0.891  -0.147  1.00  0.00    +0.012 A 
ATOM      8  C   UNL     1       1.566   1.064  -0.351  1.00  0.00    +0.073 A 
ATOM      9  C   UNL     1      -2.009  -1.270   0.269  1.00  0.00    +0.039 C 
ATOM     10  C   UNL     1      -0.797   0.940  -0.112  1.00  0.00    +0.046 A 
ATOM     11  C   UNL     1       4.117  -0.083  -0.349  1.00  0.00    +0.001 A 
ATOM     12  C   UNL     1       2.698   1.862  -0.555  1.00  0.00    +0.029 A 
ATOM     13  N   UNL     1       0.343   1.645  -0.320  1.00  0.00    -0.252 NA
ATOM     14  C   UNL     1      -3.291  -0.508  -0.080  1.00  0.00    +0.005 C 
ATOM     15  C   UNL     1      -2.103   1.690  -0.146  1.00  0.00    +0.056 C 
ATOM     16  C   UNL     1       3.970   1.288  -0.558  1.00  0.00    +0.002 A 
ATOM     17  C   UNL     1      -3.247   0.905   0.495  1.00  0.00    +0.007 C 
ENDBRANCH   1   4
TORSDOF 1
