REMARK SMILES Nc1c2c(nc3ccccc13)CCCC2
REMARK SMILES IDX 1 1 2 4 3 5 11 6 4 7 15 8 10 9 6 10 5 11 12 12 14 13 9 14
REMARK SMILES IDX 7 15 13 16 8 17
REMARK H PARENT 1 2 1 3
ROOT
ATOM      1  N   UNL     1       0.480   0.937  -2.400  1.00  0.00    -0.398 N 
ATOM      2  H   UNL     1      -0.378   1.394  -2.689  1.00  0.00    +0.156 HD
ATOM      3  H   UNL     1       1.282   1.517  -2.618  1.00  0.00    +0.156 HD
ENDROOT
BRANCH   1   4
ATOM      4  C   UNL     1       0.462   0.495  -1.052  1.00  0.00    +0.046 A 
ATOM      5  C   UNL     1      -0.762   0.133  -0.455  1.00  0.00    -0.003 A 
ATOM      6  C   UNL     1       1.679   0.226  -0.366  1.00  0.00    +0.023 A 
ATOM      7  C   UNL     1      -0.731  -0.326   0.865  1.00  0.00    +0.046 A 
ATOM      8  C   UNL     1      -2.077   0.304  -1.179  1.00  0.00    +0.039 C 
ATOM      9  C   UNL     1       2.972   0.417  -0.919  1.00  0.00    +0.012 A 
ATOM     10  C   UNL     1       1.585  -0.259   0.954  1.00  0.00    +0.073 A 
ATOM     11  N   UNL     1       0.417  -0.507   1.558  1.00  0.00    -0.252 NA
ATOM     12  C   UNL     1      -1.986  -0.718   1.601  1.00  0.00    +0.056 C 
ATOM     13  C   UNL     1      -3.259  -0.397  -0.512  1.00  0.00    +0.005 C 
ATOM     14  C   UNL     1       4.127   0.159  -0.181  1.00  0.00    +0.001 A 
ATOM     15  C   UNL     1       2.749  -0.503   1.672  1.00  0.00    +0.029 A 
ATOM     16  C   UNL     1      -3.254  -0.139   0.986  1.00  0.00    +0.007 C 
ATOM     17  C   UNL     1       4.015  -0.298   1.122  1.00  0.00    +0.002 A 
ENDBRANCH   1   4
TORSDOF 1
