REMARK SMILES Cc1ccc(Nc2nc3ccccc3s2)cc1
REMARK SMILES IDX 1 1 2 2 3 3 4 4 5 5 16 6 17 7 6 8 7 10 8 11 15 12 9 13 14 14
REMARK SMILES IDX 10 15 13 16 11 17 12 18
REMARK H PARENT 6 9
ROOT
ATOM      1  C   UNL     1      -5.393   0.970  -0.126  1.00  0.00    +0.044 C 
ATOM      2  C   UNL     1      -4.019   0.468   0.203  1.00  0.00    -0.051 A 
ATOM      3  C   UNL     1      -3.844  -0.835   0.694  1.00  0.00    +0.005 A 
ATOM      4  C   UNL     1      -2.570  -1.294   1.038  1.00  0.00    +0.026 A 
ATOM      5  C   UNL     1      -1.452  -0.459   0.894  1.00  0.00    +0.040 A 
ATOM      6  C   UNL     1      -1.633   0.859   0.444  1.00  0.00    +0.026 A 
ATOM      7  C   UNL     1      -2.908   1.318   0.098  1.00  0.00    +0.005 A 
ENDROOT
BRANCH   5   8
ATOM      8  N   UNL     1      -0.156  -0.942   1.281  1.00  0.00    -0.332 N 
ATOM      9  H   UNL     1      -0.097  -1.616   2.079  1.00  0.00    +0.169 HD
BRANCH   8  10
ATOM     10  C   UNL     1       1.057  -0.638   0.579  1.00  0.00    +0.188 A 
ATOM     11  N   UNL     1       2.278  -0.895   1.106  1.00  0.00    -0.220 NA
ATOM     12  S   UNL     1       1.149  -0.051  -1.011  1.00  0.00    -0.097 S 
ATOM     13  C   UNL     1       3.261  -0.584   0.223  1.00  0.00    +0.084 A 
ATOM     14  C   UNL     1       2.826  -0.102  -1.002  1.00  0.00    +0.056 A 
ATOM     15  C   UNL     1       4.626  -0.729   0.479  1.00  0.00    +0.030 A 
ATOM     16  C   UNL     1       3.713   0.254  -2.014  1.00  0.00    +0.021 A 
ATOM     17  C   UNL     1       5.543  -0.376  -0.526  1.00  0.00    +0.002 A 
ATOM     18  C   UNL     1       5.089   0.113  -1.767  1.00  0.00    +0.002 A 
ENDBRANCH   8  10
ENDBRANCH   5   8
TORSDOF 2
