REMARK SMILES Cc1ccc2nc(-c3ccc(N)cc3)sc2c1
REMARK SMILES IDX 8 1 9 2 10 3 11 4 13 5 14 6 7 7 2 8 3 9 17 10 4 11 16 12
REMARK SMILES IDX 5 13 15 14 6 15 1 16 12 17
REMARK H PARENT 12 18 12 19
ROOT
ATOM      1  C   UNL     1       1.904  -0.051  -0.279  1.00  0.00    +0.011 A 
ATOM      2  C   UNL     1       2.627  -1.088   0.336  1.00  0.00    +0.013 A 
ATOM      3  C   UNL     1       4.014  -1.172   0.188  1.00  0.00    +0.026 A 
ATOM      4  C   UNL     1       4.702  -0.221  -0.577  1.00  0.00    +0.031 A 
ATOM      5  C   UNL     1       3.988   0.815  -1.193  1.00  0.00    +0.026 A 
ATOM      6  C   UNL     1       2.601   0.901  -1.046  1.00  0.00    +0.013 A 
ENDROOT
BRANCH   1   7
ATOM      7  C   UNL     1       0.433   0.030  -0.116  1.00  0.00    +0.124 A 
ATOM      8  C   UNL     1      -4.274   0.261   0.431  1.00  0.00    -0.050 A 
ATOM      9  C   UNL     1      -3.927  -0.897   1.166  1.00  0.00    +0.006 A 
ATOM     10  C   UNL     1      -3.272   0.991  -0.238  1.00  0.00    +0.024 A 
ATOM     11  C   UNL     1      -2.587  -1.311   1.259  1.00  0.00    +0.030 A 
ATOM     12  C   UNL     1      -1.954   0.556  -0.127  1.00  0.00    +0.055 A 
ATOM     13  C   UNL     1      -1.607  -0.567   0.603  1.00  0.00    +0.082 A 
ATOM     14  S   UNL     1      -0.569   1.221  -0.798  1.00  0.00    -0.114 S 
ATOM     15  N   UNL     1      -0.283  -0.865   0.614  1.00  0.00    -0.236 NA
ATOM     16  C   UNL     1      -5.712   0.670   0.306  1.00  0.00    +0.044 C 
ENDBRANCH   1   7
BRANCH   4  17
ATOM     17  N   UNL     1       6.121  -0.308  -0.728  1.00  0.00    -0.399 N 
ATOM     18  H   UNL     1       6.642   0.397  -1.297  1.00  0.00    +0.156 HD
ATOM     19  H   UNL     1       6.661  -1.077  -0.273  1.00  0.00    +0.156 HD
ENDBRANCH   4  17
TORSDOF 2
