REMARK SMILES Cc1ccc2c(c1)sc(-c1ccc(N(C)C)cc1)[n+]2C
REMARK SMILES IDX 10 1 11 2 12 3 13 4 17 5 18 6 9 7 2 8 3 9 7 10 4 11 6 12
REMARK SMILES IDX 5 13 8 14 19 15 1 16 20 17 14 18 15 19 16 20
REMARK H PARENT
ROOT
ATOM      1  C   UNL     1      -0.813  -0.179   0.180  1.00  0.00    +0.058 A 
ATOM      2  C   UNL     1      -1.523  -0.837  -0.824  1.00  0.00    +0.018 A 
ATOM      3  C   UNL     1      -2.916  -0.703  -0.909  1.00  0.00    +0.027 A 
ATOM      4  C   UNL     1      -3.656   0.077  -0.003  1.00  0.00    +0.036 A 
ATOM      5  C   UNL     1      -2.910   0.728   0.995  1.00  0.00    +0.027 A 
ATOM      6  C   UNL     1      -1.516   0.604   1.095  1.00  0.00    +0.018 A 
ENDROOT
BRANCH   1   7
ATOM      7  C   UNL     1       0.636  -0.275   0.244  1.00  0.00    +0.269 A 
ATOM      8  C   UNL     1       5.371  -0.854   0.571  1.00  0.00    -0.049 A 
ATOM      9  C   UNL     1       5.252   0.087  -0.455  1.00  0.00    +0.010 A 
ATOM     10  C   UNL     1       4.222  -1.369   1.190  1.00  0.00    +0.029 A 
ATOM     11  C   UNL     1       3.998   0.556  -0.868  1.00  0.00    +0.081 A 
ATOM     12  C   UNL     1       2.968  -0.896   0.771  1.00  0.00    +0.105 A 
ATOM     13  C   UNL     1       2.843   0.056  -0.237  1.00  0.00    +0.223 A 
ATOM     14  S   UNL     1       1.404  -1.337   1.342  1.00  0.00    -0.062 S 
ATOM     15  N   UNL     1       1.519   0.386  -0.487  1.00  0.00    -0.184 N 
ATOM     16  C   UNL     1       6.729  -1.363   0.974  1.00  0.00    +0.044 C 
ATOM     17  C   UNL     1       1.141   1.375  -1.491  1.00  0.00    +0.442 C 
ENDBRANCH   1   7
BRANCH   4  18
ATOM     18  N   UNL     1      -5.039   0.231  -0.116  1.00  0.00    -0.378 N 
ATOM     19  C   UNL     1      -5.801  -0.702  -0.950  1.00  0.00    +0.143 C 
ATOM     20  C   UNL     1      -5.791   0.836   0.985  1.00  0.00    +0.143 C 
ENDBRANCH   4  18
TORSDOF 2
