REMARK SMILES O=c1sc(=O)n(-c2cccc3ccccc23)n1Cc1ccccc1
REMARK SMILES IDX 5 1 4 2 3 3 2 4 1 5 17 6 6 7 7 8 8 9 16 10 9 11 15 12 11 13
REMARK SMILES IDX 10 14 14 15 12 16 13 17 18 18 19 19 20 20 24 21 21 22 23 23
REMARK SMILES IDX 22 24
REMARK H PARENT
ROOT
ATOM      1  O   UNL     1      -1.100  -3.399  -1.418  1.00  0.00    -0.255 OA
ATOM      2  C   UNL     1      -0.306  -3.078  -0.493  1.00  0.00    +0.331 A 
ATOM      3  S   UNL     1       0.661  -4.172   0.345  1.00  0.00    -0.012 S 
ATOM      4  C   UNL     1       1.290  -2.917   1.278  1.00  0.00    +0.327 A 
ATOM      5  O   UNL     1       2.158  -3.077   2.177  1.00  0.00    -0.255 OA
ATOM      6  N   UNL     1       0.758  -1.713   0.943  1.00  0.00    -0.229 N 
ATOM      7  N   UNL     1      -0.134  -1.808  -0.053  1.00  0.00    -0.204 N 
ENDROOT
BRANCH   7   8
ATOM      8  C   UNL     1      -0.818  -0.682  -0.629  1.00  0.00    +0.075 A 
ATOM      9  C   UNL     1      -0.372  -0.170  -1.855  1.00  0.00    +0.029 A 
ATOM     10  C   UNL     1      -1.920  -0.082   0.023  1.00  0.00    +0.008 A 
ATOM     11  C   UNL     1      -0.984   0.950  -2.420  1.00  0.00    +0.003 A 
ATOM     12  C   UNL     1      -2.427  -0.592   1.234  1.00  0.00    +0.011 A 
ATOM     13  C   UNL     1      -2.534   1.058  -0.557  1.00  0.00    -0.016 A 
ATOM     14  C   UNL     1      -2.056   1.567  -1.774  1.00  0.00    +0.009 A 
ATOM     15  C   UNL     1      -3.510   0.027   1.863  1.00  0.00    +0.001 A 
ATOM     16  C   UNL     1      -3.619   1.671   0.089  1.00  0.00    +0.009 A 
ATOM     17  C   UNL     1      -4.101   1.157   1.296  1.00  0.00    +0.001 A 
ENDBRANCH   7   8
BRANCH   6  18
ATOM     18  C   UNL     1       1.160  -0.442   1.566  1.00  0.00    +0.183 C 
BRANCH  18  19
ATOM     19  C   UNL     1       2.062   0.334   0.647  1.00  0.00    -0.026 A 
ATOM     20  C   UNL     1       1.634   1.547   0.083  1.00  0.00    +0.005 A 
ATOM     21  C   UNL     1       3.345  -0.153   0.341  1.00  0.00    +0.005 A 
ATOM     22  C   UNL     1       2.471   2.255  -0.784  1.00  0.00    +0.000 A 
ATOM     23  C   UNL     1       4.182   0.561  -0.522  1.00  0.00    +0.000 A 
ATOM     24  C   UNL     1       3.746   1.765  -1.082  1.00  0.00    +0.000 A 
ENDBRANCH  18  19
ENDBRANCH   6  18
TORSDOF 3
