REMARK SMILES O=c1sn(-c2cccc3ccccc23)c(=O)n1Cc1ccccc1
REMARK SMILES IDX 1 1 2 2 3 3 4 4 15 5 16 6 17 7 18 8 19 9 20 10 24 11 21 12
REMARK SMILES IDX 23 13 22 14 5 15 6 16 14 17 7 18 13 19 9 20 8 21 12 22 10 23
REMARK SMILES IDX 11 24
REMARK H PARENT
ROOT
ATOM      1  O   UNL     1      -2.025  -2.546  -1.751  1.00  0.00    -0.255 OA
ATOM      2  C   UNL     1      -1.263  -1.660  -1.397  1.00  0.00    +0.327 C 
ATOM      3  S   UNL     1       0.354  -1.967  -0.795  1.00  0.00    +0.012 SA
ATOM      4  N   UNL     1       0.687  -0.290  -0.638  1.00  0.00    -0.211 N 
ATOM      5  C   UNL     1      -0.445   0.484  -0.946  1.00  0.00    +0.346 C 
ATOM      6  O   UNL     1      -0.527   1.707  -0.856  1.00  0.00    -0.246 OA
ATOM      7  N   UNL     1      -1.483  -0.315  -1.399  1.00  0.00    -0.245 N 
ENDROOT
BRANCH   7   8
ATOM      8  C   UNL     1      -2.764   0.240  -1.775  1.00  0.00    +0.167 C 
BRANCH   8   9
ATOM      9  C   UNL     1      -3.702   0.333  -0.593  1.00  0.00    -0.028 A 
ATOM     10  C   UNL     1      -4.533  -0.745  -0.255  1.00  0.00    +0.005 A 
ATOM     11  C   UNL     1      -3.725   1.484   0.209  1.00  0.00    +0.005 A 
ATOM     12  C   UNL     1      -5.379  -0.667   0.852  1.00  0.00    +0.000 A 
ATOM     13  C   UNL     1      -4.572   1.560   1.315  1.00  0.00    +0.000 A 
ATOM     14  C   UNL     1      -5.400   0.485   1.635  1.00  0.00    +0.000 A 
ENDBRANCH   8   9
ENDBRANCH   7   8
BRANCH   4  15
ATOM     15  C   UNL     1       1.777   0.159   0.166  1.00  0.00    +0.069 A 
ATOM     16  C   UNL     1       1.511   1.087   1.191  1.00  0.00    +0.028 A 
ATOM     17  C   UNL     1       3.115  -0.322  -0.012  1.00  0.00    +0.007 A 
ATOM     18  C   UNL     1       2.508   1.495   2.071  1.00  0.00    +0.003 A 
ATOM     19  C   UNL     1       3.549  -1.151  -1.079  1.00  0.00    +0.011 A 
ATOM     20  C   UNL     1       4.114   0.095   0.909  1.00  0.00    -0.016 A 
ATOM     21  C   UNL     1       3.795   0.989   1.940  1.00  0.00    +0.009 A 
ATOM     22  C   UNL     1       4.869  -1.597  -1.193  1.00  0.00    +0.001 A 
ATOM     23  C   UNL     1       5.436  -0.365   0.787  1.00  0.00    +0.009 A 
ATOM     24  C   UNL     1       5.811  -1.212  -0.252  1.00  0.00    +0.001 A 
ENDBRANCH   4  15
TORSDOF 3
