REMARK SMILES O=C1S/C(=N\c2cccc3ccccc23)C(=O)N1Cc1ccccc1
REMARK SMILES IDX 17 1 16 2 18 3 2 4 1 5 3 6 4 7 5 8 19 9 20 10 21 11 25 12
REMARK SMILES IDX 22 13 24 14 23 15 6 16 7 17 15 18 8 19 14 20 10 21 9 22
REMARK SMILES IDX 13 23 11 24 12 25
REMARK H PARENT
ROOT
ATOM      1  O   UNL     1       0.853   2.187   0.446  1.00  0.00    -0.266 OA
ATOM      2  C   UNL     1       0.880   1.095  -0.180  1.00  0.00    +0.287 C 
ATOM      3  N   UNL     1       1.943   0.729  -1.050  1.00  0.00    -0.263 N 
ATOM      4  C   UNL     1       1.688  -0.551  -1.624  1.00  0.00    +0.295 C 
ATOM      5  O   UNL     1       2.463  -1.073  -2.472  1.00  0.00    -0.261 OA
ATOM      6  S   UNL     1       0.181  -1.370  -1.088  1.00  0.00    -0.002 SA
ATOM      7  C   UNL     1      -0.179   0.101  -0.108  1.00  0.00    +0.172 C 
ATOM      8  N   UNL     1      -1.328   0.356   0.444  1.00  0.00    -0.235 NA
ENDROOT
BRANCH   3   9
ATOM      9  C   UNL     1       3.174   1.497  -1.237  1.00  0.00    +0.165 C 
BRANCH   9  10
ATOM     10  C   UNL     1       4.260   0.956  -0.347  1.00  0.00    -0.028 A 
ATOM     11  C   UNL     1       4.314   1.327   1.007  1.00  0.00    +0.005 A 
ATOM     12  C   UNL     1       5.198   0.035  -0.848  1.00  0.00    +0.005 A 
ATOM     13  C   UNL     1       5.304   0.799   1.842  1.00  0.00    +0.000 A 
ATOM     14  C   UNL     1       6.186  -0.491  -0.009  1.00  0.00    +0.000 A 
ATOM     15  C   UNL     1       6.240  -0.108   1.335  1.00  0.00    +0.000 A 
ENDBRANCH   9  10
ENDBRANCH   3   9
BRANCH   8  16
ATOM     16  C   UNL     1      -2.434  -0.557   0.528  1.00  0.00    +0.072 A 
ATOM     17  C   UNL     1      -2.239  -1.865   1.004  1.00  0.00    +0.029 A 
ATOM     18  C   UNL     1      -3.740  -0.124   0.205  1.00  0.00    +0.007 A 
ATOM     19  C   UNL     1      -3.311  -2.752   1.109  1.00  0.00    +0.003 A 
ATOM     20  C   UNL     1      -3.989   1.189  -0.240  1.00  0.00    +0.011 A 
ATOM     21  C   UNL     1      -4.825  -1.034   0.311  1.00  0.00    -0.016 A 
ATOM     22  C   UNL     1      -4.598  -2.344   0.756  1.00  0.00    +0.009 A 
ATOM     23  C   UNL     1      -5.287   1.588  -0.573  1.00  0.00    +0.001 A 
ATOM     24  C   UNL     1      -6.122  -0.619  -0.032  1.00  0.00    +0.009 A 
ATOM     25  C   UNL     1      -6.348   0.686  -0.473  1.00  0.00    +0.001 A 
ENDBRANCH   8  16
TORSDOF 3
