REMARK SMILES Cc1cc2nc3ccc(N(C)C)cc3[s+]c2cc1N
REMARK SMILES IDX 1 1 2 2 3 3 4 4 5 5 6 6 7 7 8 8 9 9 13 10 14 11 15 12 16 13
REMARK SMILES IDX 17 14 18 15 19 16 10 19 11 20 12 21
REMARK H PARENT 19 17 19 18
ROOT
ATOM      1  C   UNL     1       5.653   0.159   1.404  1.00  0.00    +0.046 C 
ATOM      2  C   UNL     1       4.354   0.019   0.656  1.00  0.00    -0.026 A 
ATOM      3  C   UNL     1       3.141   0.224   1.339  1.00  0.00    +0.040 A 
ATOM      4  C   UNL     1       1.913   0.103   0.680  1.00  0.00    +0.129 A 
ATOM      5  N   UNL     1       0.761   0.310   1.390  1.00  0.00    -0.237 NA
ATOM      6  C   UNL     1      -0.532   0.241   0.948  1.00  0.00    +0.129 A 
ATOM      7  C   UNL     1      -1.568   0.488   1.853  1.00  0.00    +0.036 A 
ATOM      8  C   UNL     1      -2.903   0.423   1.444  1.00  0.00    +0.028 A 
ATOM      9  C   UNL     1      -3.243   0.106   0.109  1.00  0.00    +0.042 A 
ATOM     10  C   UNL     1      -2.192  -0.140  -0.801  1.00  0.00    +0.100 A 
ATOM     11  C   UNL     1      -0.859  -0.073  -0.383  1.00  0.00    +0.259 A 
ATOM     12  S   UNL     1       0.410  -0.370  -1.453  1.00  0.00    +0.232 S 
ATOM     13  C   UNL     1       1.905  -0.229  -0.686  1.00  0.00    +0.259 A 
ATOM     14  C   UNL     1       3.098  -0.436  -1.380  1.00  0.00    +0.100 A 
ATOM     15  C   UNL     1       4.330  -0.317  -0.719  1.00  0.00    +0.040 A 
ENDROOT
BRANCH  15  16
ATOM     16  N   UNL     1       5.539  -0.542  -1.458  1.00  0.00    -0.398 N 
ATOM     17  H   UNL     1       5.501  -0.777  -2.475  1.00  0.00    +0.156 HD
ATOM     18  H   UNL     1       6.482  -0.481  -1.017  1.00  0.00    +0.156 HD
ENDBRANCH  15  16
BRANCH   9  19
ATOM     19  N   UNL     1      -4.634   0.036  -0.314  1.00  0.00    -0.377 N 
ATOM     20  C   UNL     1      -5.722   0.083   0.674  1.00  0.00    +0.143 C 
ATOM     21  C   UNL     1      -4.980  -0.089  -1.738  1.00  0.00    +0.143 C 
ENDBRANCH   9  19
TORSDOF 2
