REMARK SMILES Cc1cc2nc3ccc(=[N+](C)C)cc-3sc2cc1N
REMARK SMILES IDX 1 1 2 2 3 3 4 4 5 5 6 6 7 7 8 8 9 9 10 10 11 11 12 12 13 13
REMARK SMILES IDX 14 14 15 15 16 16 17 17 18 18 19 19
REMARK H PARENT 19 20 19 21
ROOT
ATOM      1  C   UNL     1       5.708  -0.517  -0.353  1.00  0.00    +0.046 C 
ATOM      2  C   UNL     1       4.355  -0.056   0.114  1.00  0.00    -0.026 A 
ATOM      3  C   UNL     1       3.209  -0.504  -0.567  1.00  0.00    +0.035 A 
ATOM      4  C   UNL     1       1.918  -0.146  -0.160  1.00  0.00    +0.081 A 
ATOM      5  N   UNL     1       0.858  -0.662  -0.919  1.00  0.00    -0.246 NA
ATOM      6  C   UNL     1      -0.372  -0.445  -0.592  1.00  0.00    +0.081 C 
ATOM      7  C   UNL     1      -1.393  -1.061  -1.474  1.00  0.00    +0.036 C 
ATOM      8  C   UNL     1      -2.707  -0.969  -1.253  1.00  0.00    +0.081 C 
ATOM      9  C   UNL     1      -3.252  -0.226  -0.081  1.00  0.00    +0.201 C 
ATOM     10  N   UNL     1      -4.530  -0.157   0.171  1.00  0.00    -0.235 N 
ATOM     11  C   UNL     1      -5.077   0.485   1.411  1.00  0.00    +0.433 C 
ATOM     12  C   UNL     1      -5.567  -0.719  -0.754  1.00  0.00    +0.433 C 
ATOM     13  C   UNL     1      -2.225   0.435   0.779  1.00  0.00    +0.100 C 
ATOM     14  C   UNL     1      -0.905   0.341   0.552  1.00  0.00    +0.060 C 
ATOM     15  S   UNL     1       0.188   1.164   1.602  1.00  0.00    -0.132 SA
ATOM     16  C   UNL     1       1.771   0.669   0.963  1.00  0.00    +0.055 A 
ATOM     17  C   UNL     1       2.913   1.126   1.642  1.00  0.00    +0.047 A 
ATOM     18  C   UNL     1       4.207   0.814   1.202  1.00  0.00    +0.036 A 
ENDROOT
BRANCH  18  19
ATOM     19  N   UNL     1       5.300   1.198   1.989  1.00  0.00    -0.398 N 
ATOM     20  H   UNL     1       6.188   1.222   1.498  1.00  0.00    +0.156 HD
ATOM     21  H   UNL     1       5.152   2.039   2.539  1.00  0.00    +0.156 HD
ENDBRANCH  18  19
TORSDOF 1
