REMARK SMILES OC[C@H]1O[C@H](O[C@H]2O[C@H](CO)[C@@H](O)[C@H](O)[C@H]2O)[C@H](O)[C@@H](O)[C@@H]1O
REMARK SMILES IDX 6 1 5 2 3 3 4 4 22 5 20 6 18 7 2 8 1 9 23 11 21 13 19 15
REMARK SMILES IDX 7 17 8 18 16 19 9 20 14 21 12 22 17 23 10 25 11 26 15 28
REMARK SMILES IDX 13 30
REMARK H PARENT 1 10 23 12 21 14 19 16 17 24 11 27 15 29 13 31
ROOT
ATOM      1  O   UNL     1      -0.166  -0.203   0.351  1.00  0.00    -0.318 OA
ENDROOT
BRANCH   1   2
ATOM      2  C   UNL     1      -1.235  -0.332   1.279  1.00  0.00    +0.285 C 
ATOM      3  C   UNL     1      -2.766   0.721  -0.164  1.00  0.00    +0.178 C 
ATOM      4  O   UNL     1      -2.160   0.735   1.122  1.00  0.00    -0.341 OA
ATOM      5  C   UNL     1      -3.606  -0.566  -0.357  1.00  0.00    +0.177 C 
ATOM      6  C   UNL     1      -2.706  -1.803  -0.202  1.00  0.00    +0.179 C 
ATOM      7  C   UNL     1      -1.932  -1.705   1.127  1.00  0.00    +0.202 C 
BRANCH   3   8
ATOM      8  C   UNL     1      -3.633   1.976  -0.302  1.00  0.00    +0.191 C 
BRANCH   8   9
ATOM      9  O   UNL     1      -2.826   3.119  -0.169  1.00  0.00    -0.394 OA
ATOM     10  H   UNL     1      -3.438   3.898  -0.277  1.00  0.00    +0.210 HD
ENDBRANCH   8   9
ENDBRANCH   3   8
BRANCH   5  11
ATOM     11  O   UNL     1      -4.248  -0.579  -1.610  1.00  0.00    -0.387 OA
ATOM     12  H   UNL     1      -3.547  -0.538  -2.311  1.00  0.00    +0.211 HD
ENDBRANCH   5  11
BRANCH   6  13
ATOM     13  O   UNL     1      -3.508  -2.956  -0.213  1.00  0.00    -0.387 OA
ATOM     14  H   UNL     1      -2.913  -3.721  -0.425  1.00  0.00    +0.211 HD
ENDBRANCH   6  13
BRANCH   7  15
ATOM     15  O   UNL     1      -1.005  -2.754   1.260  1.00  0.00    -0.385 OA
ATOM     16  H   UNL     1      -0.387  -2.716   0.480  1.00  0.00    +0.211 HD
ENDBRANCH   7  15
ENDBRANCH   1   2
BRANCH   1  17
ATOM     17  C   UNL     1       0.957   0.480   0.896  1.00  0.00    +0.285 C 
ATOM     18  O   UNL     1       2.023  -0.446   1.053  1.00  0.00    -0.341 OA
ATOM     19  C   UNL     1       1.335   1.717   0.023  1.00  0.00    +0.202 C 
ATOM     20  C   UNL     1       2.702  -0.667  -0.169  1.00  0.00    +0.178 C 
ATOM     21  C   UNL     1       2.863   1.887  -0.060  1.00  0.00    +0.179 C 
ATOM     22  C   UNL     1       3.553   0.581  -0.533  1.00  0.00    +0.177 C 
BRANCH  19  23
ATOM     23  O   UNL     1       0.829   1.585  -1.283  1.00  0.00    -0.385 OA
ATOM     24  H   UNL     1      -0.084   1.977  -1.283  1.00  0.00    +0.211 HD
ENDBRANCH  19  23
BRANCH  20  25
ATOM     25  C   UNL     1       3.568  -1.924  -0.018  1.00  0.00    +0.191 C 
BRANCH  25  26
ATOM     26  O   UNL     1       4.147  -2.275  -1.247  1.00  0.00    -0.394 OA
ATOM     27  H   UNL     1       5.082  -1.948  -1.229  1.00  0.00    +0.210 HD
ENDBRANCH  25  26
ENDBRANCH  20  25
BRANCH  21  28
ATOM     28  O   UNL     1       3.382   2.331   1.174  1.00  0.00    -0.387 OA
ATOM     29  H   UNL     1       3.288   1.598   1.833  1.00  0.00    +0.211 HD
ENDBRANCH  21  28
BRANCH  22  30
ATOM     30  O   UNL     1       3.718   0.633  -1.930  1.00  0.00    -0.387 OA
ATOM     31  H   UNL     1       4.654   0.373  -2.131  1.00  0.00    +0.211 HD
ENDBRANCH  22  30
ENDBRANCH   1  17
TORSDOF 12
