REMARK SMILES C[C@H](CCC(=O)NCCS(=O)(=O)O)[C@H]1CC[C@H]2[C@@H]3[C@H](O)C[C@@H]4C[C@H](O)CC[C@]4(C)[C@H]3CC[C@@]12C
REMARK SMILES IDX 5 1 6 2 7 3 4 5 3 6 2 7 1 8 14 9 15 10 33 11 16 12 32 13
REMARK SMILES IDX 17 14 31 15 18 16 30 17 19 18 28 19 21 20 27 21 22 22 26 23
REMARK SMILES IDX 23 24 24 25 34 26 29 27 20 28 25 30 8 32 9 33 10 34 11 35
REMARK SMILES IDX 12 36 13 37
REMARK H PARENT 7 4 20 29 25 31 13 38
ROOT
ATOM      1  C   UNL     1       5.917   0.342   1.107  1.00  0.00    +0.220 C 
ATOM      2  O   UNL     1       6.391  -0.643   1.739  1.00  0.00    -0.275 OA
ATOM      3  N   UNL     1       6.761   1.107   0.237  1.00  0.00    -0.355 N 
ATOM      4  H   UNL     1       6.401   2.003  -0.162  1.00  0.00    +0.163 HD
ENDROOT
BRANCH   1   5
ATOM      5  C   UNL     1       4.481   0.752   1.296  1.00  0.00    +0.100 C 
BRANCH   5   6
ATOM      6  C   UNL     1       3.628  -0.380   1.897  1.00  0.00    +0.013 C 
BRANCH   6   7
ATOM      7  C   UNL     1       2.121  -0.041   2.077  1.00  0.00    -0.010 C 
ATOM      8  C   UNL     1       1.956   1.122   3.068  1.00  0.00    +0.008 C 
BRANCH   7   9
ATOM      9  C   UNL     1       1.374   0.205   0.712  1.00  0.00    -0.002 C 
ATOM     10  C   UNL     1       1.630  -0.916  -0.304  1.00  0.00    +0.005 C 
ATOM     11  C   UNL     1      -0.187   0.381   0.710  1.00  0.00    -0.026 C 
ATOM     12  C   UNL     1       0.440  -0.940  -1.258  1.00  0.00    +0.005 C 
ATOM     13  C   UNL     1      -0.903  -0.663   1.644  1.00  0.00    +0.007 C 
ATOM     14  C   UNL     1      -0.534   0.151  -0.789  1.00  0.00    +0.001 C 
ATOM     15  C   UNL     1      -2.162  -1.344   1.073  1.00  0.00    +0.005 C 
ATOM     16  C   UNL     1      -2.029  -0.192  -1.141  1.00  0.00    +0.025 C 
ATOM     17  C   UNL     1      -2.923  -0.436   0.097  1.00  0.00    +0.001 C 
ATOM     18  C   UNL     1      -2.674   0.856  -2.066  1.00  0.00    +0.118 C 
ATOM     19  C   UNL     1      -4.370  -0.949  -0.275  1.00  0.00    -0.026 C 
ATOM     20  C   UNL     1      -4.058   0.373  -2.526  1.00  0.00    +0.036 C 
ATOM     21  C   UNL     1      -5.254  -0.943   1.029  1.00  0.00    +0.010 C 
ATOM     22  C   UNL     1      -5.016  -0.011  -1.371  1.00  0.00    +0.000 C 
ATOM     23  C   UNL     1      -6.730  -0.615   0.762  1.00  0.00    +0.032 C 
ATOM     24  C   UNL     1      -5.691   1.220  -0.733  1.00  0.00    +0.036 C 
ATOM     25  C   UNL     1      -6.899   0.792   0.137  1.00  0.00    +0.114 C 
ATOM     26  C   UNL     1      -0.564   1.840   1.104  1.00  0.00    +0.012 C 
ATOM     27  C   UNL     1      -4.343  -2.404  -0.826  1.00  0.00    +0.012 C 
BRANCH  18  28
ATOM     28  O   UNL     1      -2.773   2.100  -1.419  1.00  0.00    -0.393 OA
ATOM     29  H   UNL     1      -2.888   2.783  -2.128  1.00  0.00    +0.210 HD
ENDBRANCH  18  28
BRANCH  25  30
ATOM     30  O   UNL     1      -7.160   1.756   1.127  1.00  0.00    -0.393 OA
ATOM     31  H   UNL     1      -6.390   1.760   1.752  1.00  0.00    +0.210 HD
ENDBRANCH  25  30
ENDBRANCH   7   9
ENDBRANCH   6   7
ENDBRANCH   5   6
ENDBRANCH   1   5
BRANCH   3  32
ATOM     32  C   UNL     1       8.125   0.695  -0.093  1.00  0.00    +0.134 C 
BRANCH  32  33
ATOM     33  C   UNL     1       8.123  -0.486  -1.069  1.00  0.00    +0.188 C 
BRANCH  33  34
ATOM     34  S   UNL     1       7.397  -0.046  -2.644  1.00  0.00    +0.266 S 
ATOM     35  O   UNL     1       8.025   1.214  -3.171  1.00  0.00    -0.200 OA
ATOM     36  O   UNL     1       5.919   0.166  -2.482  1.00  0.00    -0.200 OA
BRANCH  34  37
ATOM     37  O   UNL     1       7.652  -1.295  -3.741  1.00  0.00    -0.285 OA
ATOM     38  H   UNL     1       8.637  -1.337  -3.855  1.00  0.00    +0.234 HD
ENDBRANCH  34  37
ENDBRANCH  33  34
ENDBRANCH  32  33
ENDBRANCH   3  32
TORSDOF 10
