REMARK SMILES CN1C(=N)N(C)C(C)(c2cc(NC(=O)c3ncc(F)cn3)ccc2F)C1=O
REMARK SMILES IDX 9 1 10 2 11 3 22 4 23 5 24 6 25 7 7 8 5 9 3 10 4 11 2 12
REMARK SMILES IDX 26 13 27 14 6 15 8 16 1 18 12 19 13 20 14 21 15 23 16 24
REMARK SMILES IDX 21 25 17 26 20 27 18 28 19 29
REMARK H PARENT 4 17 12 22
ROOT
ATOM      1  C   UNL     1      -1.076   0.003  -0.319  1.00  0.00    +0.025 A 
ATOM      2  C   UNL     1       0.257  -0.431  -0.122  1.00  0.00    +0.036 A 
ATOM      3  C   UNL     1       1.318   0.164  -0.816  1.00  0.00    +0.042 A 
ATOM      4  C   UNL     1       1.065   1.174  -1.754  1.00  0.00    +0.029 A 
ATOM      5  C   UNL     1      -0.247   1.566  -2.012  1.00  0.00    +0.042 A 
ATOM      6  C   UNL     1      -1.311   0.996  -1.302  1.00  0.00    +0.129 A 
ATOM      7  F   UNL     1      -2.567   1.438  -1.564  1.00  0.00    -0.207 F 
ENDROOT
BRANCH   1   8
ATOM      8  C   UNL     1      -2.241  -0.563   0.509  1.00  0.00    +0.147 C 
ATOM      9  N   UNL     1      -3.032   0.526   1.097  1.00  0.00    -0.327 N 
ATOM     10  C   UNL     1      -4.373   0.416   0.622  1.00  0.00    +0.201 C 
ATOM     11  N   UNL     1      -5.298   1.275   0.917  1.00  0.00    -0.269 NA
ATOM     12  N   UNL     1      -4.558  -0.686  -0.256  1.00  0.00    -0.284 N 
ATOM     13  C   UNL     1      -3.253  -1.243  -0.382  1.00  0.00    +0.259 C 
ATOM     14  O   UNL     1      -2.993  -2.211  -1.140  1.00  0.00    -0.271 OA
ATOM     15  C   UNL     1      -2.534   1.593   1.963  1.00  0.00    +0.148 C 
ATOM     16  C   UNL     1      -1.829  -1.541   1.631  1.00  0.00    +0.051 C 
ATOM     17  H   UNL     1      -6.268   1.195   0.542  1.00  0.00    +0.191 HD
ATOM     18  C   UNL     1      -5.677  -0.909  -1.167  1.00  0.00    +0.156 C 
ENDBRANCH   1   8
BRANCH   3  19
ATOM     19  N   UNL     1       2.662  -0.248  -0.543  1.00  0.00    -0.319 N 
ATOM     20  C   UNL     1       3.628   0.668  -0.000  1.00  0.00    +0.293 C 
ATOM     21  O   UNL     1       3.317   1.874   0.197  1.00  0.00    -0.265 OA
ATOM     22  H   UNL     1       2.865  -1.280  -0.514  1.00  0.00    +0.170 HD
BRANCH  20  23
ATOM     23  C   UNL     1       4.969   0.200   0.376  1.00  0.00    +0.218 A 
ATOM     24  N   UNL     1       5.791   1.003   1.109  1.00  0.00    -0.229 NA
ATOM     25  N   UNL     1       5.388  -1.046   0.015  1.00  0.00    -0.229 NA
ATOM     26  C   UNL     1       7.022   0.579   1.497  1.00  0.00    +0.154 A 
ATOM     27  C   UNL     1       6.614  -1.505   0.377  1.00  0.00    +0.154 A 
ATOM     28  C   UNL     1       7.464  -0.694   1.131  1.00  0.00    +0.159 A 
ATOM     29  F   UNL     1       8.689  -1.139   1.510  1.00  0.00    -0.204 F 
ENDBRANCH  20  23
ENDBRANCH   3  19
TORSDOF 3
