REMARK SMILES FCCC1CCN(c2ccn3c(n2)nc2ccccc23)CC1
REMARK SMILES IDX 1 1 2 2 3 3 4 4 5 5 22 6 6 7 21 8 7 9 8 10 9 11 13 12 10 13
REMARK SMILES IDX 12 14 11 15 14 16 20 17 15 18 19 19 16 20 18 21 17 22
REMARK H PARENT
ROOT
ATOM      1  F   UNL     1      -4.612  -1.128   2.431  1.00  0.00    -0.251 F 
ATOM      2  C   UNL     1      -4.974   0.178   2.347  1.00  0.00    +0.215 C 
ENDROOT
BRANCH   2   3
ATOM      3  C   UNL     1      -3.794   1.013   1.873  1.00  0.00    +0.038 C 
BRANCH   3   4
ATOM      4  C   UNL     1      -3.405   0.769   0.402  1.00  0.00    -0.005 C 
ATOM      5  C   UNL     1      -2.345   1.802  -0.031  1.00  0.00    +0.025 C 
ATOM      6  C   UNL     1      -2.890  -0.661   0.149  1.00  0.00    +0.025 C 
ATOM      7  C   UNL     1      -1.850   1.537  -1.454  1.00  0.00    +0.118 C 
ATOM      8  C   UNL     1      -2.376  -0.832  -1.282  1.00  0.00    +0.118 C 
ATOM      9  N   UNL     1      -1.333   0.162  -1.556  1.00  0.00    -0.356 N 
ATOM     10  C   UNL     1       0.013  -0.083  -1.264  1.00  0.00    +0.134 C 
ATOM     11  C   UNL     1       0.601  -1.453  -1.531  1.00  0.00    +0.065 C 
ATOM     12  N   UNL     1       0.746   0.896  -0.783  1.00  0.00    -0.195 NA
ATOM     13  C   UNL     1       1.890  -1.642  -1.223  1.00  0.00    +0.099 C 
ATOM     14  C   UNL     1       2.053   0.659  -0.482  1.00  0.00    +0.236 A 
ATOM     15  N   UNL     1       2.619  -0.592  -0.693  1.00  0.00    -0.284 N 
ATOM     16  N   UNL     1       2.942   1.492   0.023  1.00  0.00    -0.211 NA
ATOM     17  C   UNL     1       3.938  -0.536  -0.299  1.00  0.00    +0.074 A 
ATOM     18  C   UNL     1       4.103   0.774   0.140  1.00  0.00    +0.091 A 
ATOM     19  C   UNL     1       4.977  -1.476  -0.284  1.00  0.00    +0.029 A 
ATOM     20  C   UNL     1       5.355   1.186   0.621  1.00  0.00    +0.031 A 
ATOM     21  C   UNL     1       6.218  -1.046   0.199  1.00  0.00    +0.002 A 
ATOM     22  C   UNL     1       6.408   0.263   0.645  1.00  0.00    +0.002 A 
ENDBRANCH   3   4
ENDBRANCH   2   3
TORSDOF 2
