REMARK SMILES FCCC1CCN(c2ccn3c(n2)nc2ccccc23)CC1
REMARK SMILES IDX 1 1 2 2 3 3 4 4 5 5 22 6 6 7 21 8 7 9 8 10 9 11 13 12 10 13
REMARK SMILES IDX 12 14 11 15 14 16 20 17 15 18 19 19 16 20 18 21 17 22
REMARK H PARENT
ROOT
ATOM      1  F   UNL     1       6.363  -1.023  -0.675  1.00  0.00    -0.251 F 
ATOM      2  C   UNL     1       6.272  -0.301   0.472  1.00  0.00    +0.215 C 
ENDROOT
BRANCH   2   3
ATOM      3  C   UNL     1       5.244   0.804   0.289  1.00  0.00    +0.038 C 
BRANCH   3   4
ATOM      4  C   UNL     1       3.857   0.299  -0.149  1.00  0.00    -0.005 C 
ATOM      5  C   UNL     1       3.212  -0.636   0.884  1.00  0.00    +0.025 C 
ATOM      6  C   UNL     1       2.923   1.492  -0.406  1.00  0.00    +0.025 C 
ATOM      7  C   UNL     1       1.799  -1.043   0.466  1.00  0.00    +0.118 C 
ATOM      8  C   UNL     1       1.517   1.040  -0.792  1.00  0.00    +0.118 C 
ATOM      9  N   UNL     1       0.966   0.149   0.247  1.00  0.00    -0.356 N 
ATOM     10  C   UNL     1      -0.426   0.014   0.307  1.00  0.00    +0.134 C 
ATOM     11  C   UNL     1      -1.042  -0.601   1.545  1.00  0.00    +0.065 C 
ATOM     12  N   UNL     1      -1.159   0.443  -0.694  1.00  0.00    -0.195 NA
ATOM     13  C   UNL     1      -2.374  -0.720   1.573  1.00  0.00    +0.099 C 
ATOM     14  C   UNL     1      -2.513   0.299  -0.624  1.00  0.00    +0.236 A 
ATOM     15  N   UNL     1      -3.114  -0.277   0.489  1.00  0.00    -0.284 N 
ATOM     16  N   UNL     1      -3.420   0.643  -1.515  1.00  0.00    -0.211 NA
ATOM     17  C   UNL     1      -4.476  -0.289   0.280  1.00  0.00    +0.074 A 
ATOM     18  C   UNL     1      -4.629   0.290  -0.976  1.00  0.00    +0.091 A 
ATOM     19  C   UNL     1      -5.562  -0.738   1.045  1.00  0.00    +0.029 A 
ATOM     20  C   UNL     1      -5.917   0.437  -1.513  1.00  0.00    +0.031 A 
ATOM     21  C   UNL     1      -6.838  -0.583   0.491  1.00  0.00    +0.002 A 
ATOM     22  C   UNL     1      -7.016  -0.005  -0.767  1.00  0.00    +0.002 A 
ENDBRANCH   3   4
ENDBRANCH   2   3
TORSDOF 2
