REMARK SMILES FCCC1CCN(c2ccn3c(n2)nc2ccccc23)CC1
REMARK SMILES IDX 1 1 2 2 3 3 4 4 5 5 22 6 6 7 21 8 7 9 8 10 9 11 13 12 10 13
REMARK SMILES IDX 12 14 11 15 14 16 20 17 15 18 19 19 16 20 18 21 17 22
REMARK H PARENT
ROOT
ATOM      1  F   UNL     1       6.222  -1.683  -0.870  1.00  0.00    -0.251 F 
ATOM      2  C   UNL     1       6.175  -0.331  -1.000  1.00  0.00    +0.215 C 
ENDROOT
BRANCH   2   3
ATOM      3  C   UNL     1       5.303   0.245   0.105  1.00  0.00    +0.038 C 
BRANCH   3   4
ATOM      4  C   UNL     1       3.868  -0.316   0.117  1.00  0.00    -0.005 C 
ATOM      5  C   UNL     1       3.080   0.054  -1.147  1.00  0.00    +0.025 C 
ATOM      6  C   UNL     1       3.116   0.199   1.354  1.00  0.00    +0.025 C 
ATOM      7  C   UNL     1       1.628  -0.419  -1.069  1.00  0.00    +0.118 C 
ATOM      8  C   UNL     1       1.671  -0.293   1.377  1.00  0.00    +0.118 C 
ATOM      9  N   UNL     1       0.978   0.112   0.144  1.00  0.00    -0.356 N 
ATOM     10  C   UNL     1      -0.420   0.179   0.150  1.00  0.00    +0.134 C 
ATOM     11  C   UNL     1      -1.101   1.017   1.210  1.00  0.00    +0.065 C 
ATOM     12  N   UNL     1      -1.099  -0.461  -0.773  1.00  0.00    -0.195 NA
ATOM     13  C   UNL     1      -2.438   1.059   1.192  1.00  0.00    +0.099 C 
ATOM     14  C   UNL     1      -2.460  -0.392  -0.751  1.00  0.00    +0.236 A 
ATOM     15  N   UNL     1      -3.123   0.353   0.217  1.00  0.00    -0.284 N 
ATOM     16  N   UNL     1      -3.322  -0.966  -1.566  1.00  0.00    -0.211 NA
ATOM     17  C   UNL     1      -4.477   0.238  -0.009  1.00  0.00    +0.074 A 
ATOM     18  C   UNL     1      -4.564  -0.589  -1.125  1.00  0.00    +0.091 A 
ATOM     19  C   UNL     1      -5.607   0.762   0.635  1.00  0.00    +0.029 A 
ATOM     20  C   UNL     1      -5.826  -0.922  -1.638  1.00  0.00    +0.031 A 
ATOM     21  C   UNL     1      -6.857   0.418   0.108  1.00  0.00    +0.002 A 
ATOM     22  C   UNL     1      -6.968  -0.410  -1.010  1.00  0.00    +0.002 A 
ENDBRANCH   3   4
ENDBRANCH   2   3
TORSDOF 2
