REMARK SMILES O=C(O)c1cc(N=Nc2ccc(-c3ccc(N=Nc4ccc(O)c(C(=O)O)c4)cc3)cc2)ccc1O
REMARK SMILES IDX 9 1 10 2 11 3 12 4 31 5 32 6 8 7 7 8 6 9 4 10 5 11 35 12
REMARK SMILES IDX 34 13 33 14 2 15 1 16 3 17 36 19 13 21 14 22 30 23 15 24
REMARK SMILES IDX 29 25 16 26 17 27 18 28 19 29 28 30 20 31 24 32 21 33 22 34
REMARK SMILES IDX 25 35 26 36 27 37 23 39
REMARK H PARENT 3 18 36 20 27 38 23 40
ROOT
ATOM      1  C   UNL     1       3.511   0.003   0.575  1.00  0.00    +0.086 A 
ATOM      2  C   UNL     1       2.815  -1.207   0.541  1.00  0.00    +0.031 A 
ATOM      3  C   UNL     1       1.426  -1.226   0.366  1.00  0.00    +0.011 A 
ATOM      4  C   UNL     1       0.697  -0.033   0.231  1.00  0.00    -0.018 A 
ATOM      5  C   UNL     1       1.404   1.179   0.280  1.00  0.00    +0.011 A 
ATOM      6  C   UNL     1       2.792   1.197   0.454  1.00  0.00    +0.031 A 
ENDROOT
BRANCH   1   7
ATOM      7  N   UNL     1       4.902  -0.006   0.780  1.00  0.00    -0.151 NA
ATOM      8  N   UNL     1       5.496   0.455  -0.220  1.00  0.00    -0.151 NA
BRANCH   8   9
ATOM      9  C   UNL     1       6.887   0.420  -0.024  1.00  0.00    +0.087 A 
ATOM     10  C   UNL     1       9.069  -0.403  -0.706  1.00  0.00    +0.103 A 
ATOM     11  C   UNL     1       7.676  -0.378  -0.856  1.00  0.00    +0.049 A 
ATOM     12  C   UNL     1       9.676   0.358   0.299  1.00  0.00    +0.130 A 
ATOM     13  C   UNL     1       8.898   1.169   1.126  1.00  0.00    +0.049 A 
ATOM     14  C   UNL     1       7.511   1.204   0.956  1.00  0.00    +0.034 A 
BRANCH  10  15
ATOM     15  C   UNL     1       9.825  -1.273  -1.626  1.00  0.00    +0.339 C 
ATOM     16  O   UNL     1       9.477  -2.381  -1.993  1.00  0.00    -0.246 OA
BRANCH  15  17
ATOM     17  O   UNL     1      10.916  -0.671  -2.130  1.00  0.00    -0.478 OA
ATOM     18  H   UNL     1      11.309  -1.343  -2.722  1.00  0.00    +0.297 HD
ENDBRANCH  15  17
ENDBRANCH  10  15
BRANCH  12  19
ATOM     19  O   UNL     1      11.024   0.289   0.509  1.00  0.00    -0.507 OA
ATOM     20  H   UNL     1      11.283   0.930   1.190  1.00  0.00    +0.293 HD
ENDBRANCH  12  19
ENDBRANCH   8   9
ENDBRANCH   1   7
BRANCH   4  21
ATOM     21  C   UNL     1      -0.763  -0.054   0.046  1.00  0.00    -0.018 A 
ATOM     22  C   UNL     1      -1.352  -0.808  -0.982  1.00  0.00    +0.011 A 
ATOM     23  C   UNL     1      -1.611   0.682   0.890  1.00  0.00    +0.011 A 
ATOM     24  C   UNL     1      -2.740  -0.828  -1.158  1.00  0.00    +0.031 A 
ATOM     25  C   UNL     1      -2.999   0.660   0.713  1.00  0.00    +0.031 A 
ATOM     26  C   UNL     1      -3.577  -0.105  -0.306  1.00  0.00    +0.086 A 
BRANCH  26  27
ATOM     27  N   UNL     1      -4.966  -0.121  -0.525  1.00  0.00    -0.151 NA
ATOM     28  N   UNL     1      -5.561  -0.614   0.459  1.00  0.00    -0.151 NA
BRANCH  28  29
ATOM     29  C   UNL     1      -6.948  -0.641   0.231  1.00  0.00    +0.087 A 
ATOM     30  C   UNL     1      -7.694   0.540   0.110  1.00  0.00    +0.049 A 
ATOM     31  C   UNL     1      -7.607  -1.873   0.172  1.00  0.00    +0.034 A 
ATOM     32  C   UNL     1      -9.081   0.489  -0.090  1.00  0.00    +0.103 A 
ATOM     33  C   UNL     1      -8.988  -1.933  -0.026  1.00  0.00    +0.049 A 
ATOM     34  C   UNL     1      -9.720  -0.756  -0.158  1.00  0.00    +0.130 A 
BRANCH  32  35
ATOM     35  C   UNL     1      -9.879   1.726  -0.226  1.00  0.00    +0.339 C 
ATOM     36  O   UNL     1     -11.085   1.748  -0.409  1.00  0.00    -0.246 OA
BRANCH  35  37
ATOM     37  O   UNL     1      -9.156   2.853  -0.129  1.00  0.00    -0.478 OA
ATOM     38  H   UNL     1      -9.805   3.579  -0.240  1.00  0.00    +0.297 HD
ENDBRANCH  35  37
ENDBRANCH  32  35
BRANCH  34  39
ATOM     39  O   UNL     1     -11.068  -0.905  -0.351  1.00  0.00    -0.507 OA
ATOM     40  H   UNL     1     -11.479  -0.018  -0.433  1.00  0.00    +0.293 HD
ENDBRANCH  34  39
ENDBRANCH  28  29
ENDBRANCH  26  27
ENDBRANCH   4  21
TORSDOF 11
