REMARK SMILES C=C(c1ccc(C(=O)O)cc1)c1cc2c(cc1C)C(C)(C)CCC2(C)C
REMARK SMILES IDX 3 1 4 2 5 3 6 4 10 5 11 6 2 7 1 8 12 9 13 10 17 11 14 12
REMARK SMILES IDX 16 13 15 14 24 15 19 16 23 17 22 18 18 19 25 20 26 21 20 22
REMARK SMILES IDX 21 23 7 24 8 25 9 26
REMARK H PARENT 9 27
ROOT
ATOM      1  C   UNL     1       3.037  -1.203  -0.330  1.00  0.00    -0.018 A 
ATOM      2  C   UNL     1       4.178  -1.530  -1.079  1.00  0.00    +0.009 A 
ATOM      3  C   UNL     1       5.436  -1.036  -0.718  1.00  0.00    +0.016 A 
ATOM      4  C   UNL     1       5.571  -0.200   0.394  1.00  0.00    +0.059 A 
ATOM      5  C   UNL     1       4.439   0.143   1.141  1.00  0.00    +0.016 A 
ATOM      6  C   UNL     1       3.183  -0.353   0.776  1.00  0.00    +0.009 A 
ENDROOT
BRANCH   1   7
ATOM      7  C   UNL     1       1.687  -1.694  -0.710  1.00  0.00    -0.018 C 
ATOM      8  C   UNL     1       1.526  -2.980  -1.075  1.00  0.00    +0.018 C 
BRANCH   7   9
ATOM      9  C   UNL     1       0.462  -0.853  -0.685  1.00  0.00    -0.015 A 
ATOM     10  C   UNL     1      -0.506  -1.097   0.304  1.00  0.00    +0.013 A 
ATOM     11  C   UNL     1       0.251   0.183  -1.603  1.00  0.00    -0.043 A 
ATOM     12  C   UNL     1      -1.689  -0.334   0.416  1.00  0.00    -0.038 A 
ATOM     13  C   UNL     1      -0.907   0.967  -1.479  1.00  0.00    +0.008 A 
ATOM     14  C   UNL     1      -1.878   0.745  -0.475  1.00  0.00    -0.038 A 
ATOM     15  C   UNL     1      -2.696  -0.675   1.523  1.00  0.00    -0.010 C 
ATOM     16  C   UNL     1      -3.113   1.655  -0.415  1.00  0.00    -0.010 C 
ATOM     17  C   UNL     1      -4.052   0.027   1.294  1.00  0.00    +0.012 C 
ATOM     18  C   UNL     1      -3.879   1.489   0.916  1.00  0.00    +0.012 C 
ATOM     19  C   UNL     1       1.239   0.504  -2.690  1.00  0.00    +0.045 C 
ATOM     20  C   UNL     1      -2.994  -2.192   1.582  1.00  0.00    +0.016 C 
ATOM     21  C   UNL     1      -2.103  -0.244   2.883  1.00  0.00    +0.016 C 
ATOM     22  C   UNL     1      -4.040   1.310  -1.601  1.00  0.00    +0.016 C 
ATOM     23  C   UNL     1      -2.732   3.152  -0.514  1.00  0.00    +0.016 C 
ENDBRANCH   7   9
ENDBRANCH   1   7
BRANCH   4  24
ATOM     24  C   UNL     1       6.924   0.301   0.738  1.00  0.00    +0.335 C 
ATOM     25  O   UNL     1       7.951   0.052   0.135  1.00  0.00    -0.246 OA
BRANCH  24  26
ATOM     26  O   UNL     1       6.929   1.092   1.826  1.00  0.00    -0.478 OA
ATOM     27  H   UNL     1       7.871   1.342   1.929  1.00  0.00    +0.297 HD
ENDBRANCH  24  26
ENDBRANCH   4  24
TORSDOF 4
