REMARK SMILES CN(C)c1ccc2nc3ccc(N(C)C)cc3[s+]c2c1
REMARK SMILES IDX 4 1 5 2 6 3 7 4 8 5 9 6 10 7 11 8 12 9 16 10 17 11 18 12
REMARK SMILES IDX 19 13 20 14 2 15 1 16 3 17 13 18 14 19 15 20
REMARK H PARENT
ROOT
ATOM      1  C   UNL     1      -3.785  -0.593  -0.401  1.00  0.00    +0.042 A 
ATOM      2  C   UNL     1      -3.438  -1.756   0.298  1.00  0.00    +0.028 A 
ATOM      3  C   UNL     1      -2.113  -2.038   0.676  1.00  0.00    +0.036 A 
ATOM      4  C   UNL     1      -1.063  -1.196   0.377  1.00  0.00    +0.129 A 
ATOM      5  N   UNL     1       0.160  -1.575   0.796  1.00  0.00    -0.237 NA
ATOM      6  C   UNL     1       1.271  -0.847   0.566  1.00  0.00    +0.129 A 
ATOM      7  C   UNL     1       2.458  -1.350   1.056  1.00  0.00    +0.036 A 
ATOM      8  C   UNL     1       3.687  -0.689   0.880  1.00  0.00    +0.028 A 
ATOM      9  C   UNL     1       3.792   0.522   0.185  1.00  0.00    +0.042 A 
ATOM     10  C   UNL     1       2.582   1.041  -0.299  1.00  0.00    +0.100 A 
ATOM     11  C   UNL     1       1.351   0.376  -0.121  1.00  0.00    +0.259 A 
ATOM     12  S   UNL     1      -0.117   1.149  -0.804  1.00  0.00    +0.232 S 
ATOM     13  C   UNL     1      -1.386  -0.030  -0.340  1.00  0.00    +0.259 A 
ATOM     14  C   UNL     1      -2.714   0.255  -0.720  1.00  0.00    +0.100 A 
ENDROOT
BRANCH   1  15
ATOM     15  N   UNL     1      -5.099  -0.320  -0.792  1.00  0.00    -0.377 N 
ATOM     16  C   UNL     1      -5.441   1.025  -1.255  1.00  0.00    +0.143 C 
ATOM     17  C   UNL     1      -6.194  -1.072  -0.180  1.00  0.00    +0.143 C 
ENDBRANCH   1  15
BRANCH   9  18
ATOM     18  N   UNL     1       5.011   1.188   0.024  1.00  0.00    -0.377 N 
ATOM     19  C   UNL     1       6.256   0.464   0.280  1.00  0.00    +0.143 C 
ATOM     20  C   UNL     1       5.105   2.280  -0.944  1.00  0.00    +0.143 C 
ENDBRANCH   9  18
TORSDOF 2
