REMARK SMILES Cc1nc(Nc2ccc(C#N)c(F)c2)c(C(F)(F)F)n1C
REMARK SMILES IDX 1 1 2 2 3 3 4 4 15 5 20 6 21 7 5 8 6 10 7 11 14 12 8 13
REMARK SMILES IDX 12 14 9 15 10 16 11 17 13 18 16 19 17 20 18 21 19 22
REMARK H PARENT 5 9
ROOT
ATOM      1  C   UNL     1      -2.640  -0.322  -2.689  1.00  0.00    +0.088 C 
ATOM      2  C   UNL     1      -1.923  -0.560  -1.411  1.00  0.00    +0.108 A 
ATOM      3  N   UNL     1      -0.795   0.014  -1.052  1.00  0.00    -0.216 NA
ATOM      4  C   UNL     1      -0.492  -0.463   0.188  1.00  0.00    +0.161 A 
ATOM      5  C   UNL     1      -1.450  -1.354   0.609  1.00  0.00    +0.167 A 
ATOM      6  N   UNL     1      -2.356  -1.418  -0.427  1.00  0.00    -0.326 N 
ATOM      7  C   UNL     1      -3.558  -2.220  -0.461  1.00  0.00    +0.151 C 
ENDROOT
BRANCH   4   8
ATOM      8  N   UNL     1       0.595  -0.091   0.897  1.00  0.00    -0.338 N 
ATOM      9  H   UNL     1       0.699  -0.487   1.828  1.00  0.00    +0.168 HD
BRANCH   8  10
ATOM     10  C   UNL     1       1.661   0.783   0.586  1.00  0.00    +0.043 A 
ATOM     11  C   UNL     1       2.642   1.019   1.567  1.00  0.00    +0.027 A 
ATOM     12  C   UNL     1       1.799   1.439  -0.641  1.00  0.00    +0.066 A 
ATOM     13  C   UNL     1       3.723   1.877   1.329  1.00  0.00    +0.025 A 
ATOM     14  C   UNL     1       2.876   2.295  -0.878  1.00  0.00    +0.143 A 
ATOM     15  C   UNL     1       3.841   2.521   0.096  1.00  0.00    +0.088 A 
ATOM     16  C   UNL     1       4.939   3.400  -0.160  1.00  0.00    +0.102 C 
ATOM     17  N   UNL     1       5.845   4.106  -0.331  1.00  0.00    -0.192 NA
ATOM     18  F   UNL     1       2.967   2.900  -2.072  1.00  0.00    -0.205 F 
ENDBRANCH   8  10
ENDBRANCH   4   8
BRANCH   5  19
ATOM     19  C   UNL     1      -1.579  -2.120   1.853  1.00  0.00    +0.435 C 
ATOM     20  F   UNL     1      -2.786  -1.924   2.442  1.00  0.00    -0.164 F 
ATOM     21  F   UNL     1      -1.462  -3.454   1.638  1.00  0.00    -0.164 F 
ATOM     22  F   UNL     1      -0.634  -1.784   2.769  1.00  0.00    -0.164 F 
ENDBRANCH   5  19
TORSDOF 3
