REMARK SMILES CC12CC3CC(C)(C1)CC(N)(C3)C2
REMARK SMILES IDX 1 1 2 2 3 3 4 4 5 5 6 6 7 7 8 8 9 9 10 10 12 11 13 12 11 13
REMARK H PARENT 11 14 11 15
ROOT
ATOM      1  C   UNL     1      -2.181  -1.722  -1.049  1.00  0.00    +0.011 C 
ATOM      2  C   UNL     1      -1.140  -0.782  -0.435  1.00  0.00    -0.030 C 
ATOM      3  C   UNL     1      -1.635  -0.255   0.931  1.00  0.00    +0.010 C 
ATOM      4  C   UNL     1      -0.594   0.689   1.552  1.00  0.00    -0.008 C 
ATOM      5  C   UNL     1       0.726  -0.071   1.753  1.00  0.00    +0.010 C 
ATOM      6  C   UNL     1       1.259  -0.595   0.400  1.00  0.00    -0.030 C 
ATOM      7  C   UNL     1       2.575  -1.351   0.607  1.00  0.00    +0.011 C 
ATOM      8  C   UNL     1       0.197  -1.530  -0.223  1.00  0.00    +0.013 C 
ATOM      9  C   UNL     1       1.478   0.609  -0.548  1.00  0.00    +0.029 C 
ATOM     10  C   UNL     1       0.156   1.378  -0.757  1.00  0.00    +0.017 C 
ATOM     11  C   UNL     1      -0.358   1.880   0.608  1.00  0.00    +0.025 C 
ATOM     12  C   UNL     1      -0.890   0.424  -1.372  1.00  0.00    +0.029 C 
ENDROOT
BRANCH  10  13
ATOM     13  N   UNL     1       0.383   2.506  -1.660  1.00  0.00    -0.325 NA
ATOM     14  H   UNL     1       1.053   3.152  -1.245  1.00  0.00    +0.119 HD
ATOM     15  H   UNL     1      -0.482   3.033  -1.779  1.00  0.00    +0.119 HD
ENDBRANCH  10  13
TORSDOF 1
