REMARK SMILES CCN(C)C(=O)Oc1cccc([C@@H](C)N(C)C)c1
REMARK SMILES IDX 7 1 5 2 6 3 3 4 4 5 2 6 1 7 8 8 9 9 18 10 10 11 12 12 11 13
REMARK SMILES IDX 13 14 14 15 15 16 16 17 17 18
REMARK H PARENT
ROOT
ATOM      1  O   UNL     1       1.742  -0.174  -0.964  1.00  0.00    -0.410 OA
ENDROOT
BRANCH   1   2
ATOM      2  C   UNL     1       2.128  -0.373   0.361  1.00  0.00    +0.414 C 
ATOM      3  O   UNL     1       1.462  -0.036   1.336  1.00  0.00    -0.224 OA
BRANCH   2   4
ATOM      4  N   UNL     1       3.370  -0.995   0.464  1.00  0.00    -0.311 N 
ATOM      5  C   UNL     1       4.216  -1.228  -0.694  1.00  0.00    +0.150 C 
BRANCH   4   6
ATOM      6  C   UNL     1       3.983  -1.102   1.783  1.00  0.00    +0.119 C 
ATOM      7  C   UNL     1       4.767   0.145   2.161  1.00  0.00    +0.027 C 
ENDBRANCH   4   6
ENDBRANCH   2   4
ENDBRANCH   1   2
BRANCH   1   8
ATOM      8  C   UNL     1       0.490   0.421  -1.173  1.00  0.00    +0.133 A 
ATOM      9  C   UNL     1       0.456   1.611  -1.892  1.00  0.00    +0.047 A 
ATOM     10  C   UNL     1      -0.684  -0.204  -0.747  1.00  0.00    +0.052 A 
ATOM     11  C   UNL     1      -0.773   2.208  -2.157  1.00  0.00    +0.004 A 
ATOM     12  C   UNL     1      -1.930   0.391  -1.001  1.00  0.00    -0.027 A 
ATOM     13  C   UNL     1      -1.954   1.606  -1.712  1.00  0.00    +0.005 A 
BRANCH  12  14
ATOM     14  C   UNL     1      -3.240  -0.229  -0.522  1.00  0.00    +0.083 C 
ATOM     15  C   UNL     1      -3.314  -1.743  -0.789  1.00  0.00    +0.030 C 
BRANCH  14  16
ATOM     16  N   UNL     1      -3.628   0.083   0.872  1.00  0.00    -0.303 NA
ATOM     17  C   UNL     1      -2.667  -0.338   1.891  1.00  0.00    +0.105 C 
ATOM     18  C   UNL     1      -3.968   1.493   1.056  1.00  0.00    +0.105 C 
ENDBRANCH  14  16
ENDBRANCH  12  14
ENDBRANCH   1   8
TORSDOF 6
