REMARK SMILES Cc1ccc2nc(-c3ccc(N)cc3)sc2c1
REMARK SMILES IDX 8 1 9 2 10 3 11 4 13 5 14 6 7 7 2 8 3 9 17 10 4 11 16 12
REMARK SMILES IDX 5 13 15 14 6 15 1 16 12 17
REMARK H PARENT 12 18 12 19
ROOT
ATOM      1  C   UNL     1      -1.908  -0.268   0.029  1.00  0.00    +0.011 A 
ATOM      2  C   UNL     1      -2.672   0.887   0.267  1.00  0.00    +0.013 A 
ATOM      3  C   UNL     1      -4.068   0.833   0.353  1.00  0.00    +0.026 A 
ATOM      4  C   UNL     1      -4.747  -0.368   0.161  1.00  0.00    +0.031 A 
ATOM      5  C   UNL     1      -3.998  -1.531  -0.014  1.00  0.00    +0.026 A 
ATOM      6  C   UNL     1      -2.599  -1.482  -0.100  1.00  0.00    +0.013 A 
ENDROOT
BRANCH   1   7
ATOM      7  C   UNL     1      -0.436  -0.145  -0.052  1.00  0.00    +0.124 A 
ATOM      8  C   UNL     1       4.299   0.163  -0.345  1.00  0.00    -0.050 A 
ATOM      9  C   UNL     1       3.909   1.481  -0.096  1.00  0.00    +0.006 A 
ATOM     10  C   UNL     1       3.329  -0.850  -0.426  1.00  0.00    +0.024 A 
ATOM     11  C   UNL     1       2.558   1.815   0.051  1.00  0.00    +0.030 A 
ATOM     12  C   UNL     1       1.976  -0.501  -0.278  1.00  0.00    +0.055 A 
ATOM     13  C   UNL     1       1.574   0.812  -0.043  1.00  0.00    +0.082 A 
ATOM     14  S   UNL     1       0.583  -1.505  -0.337  1.00  0.00    -0.114 S 
ATOM     15  N   UNL     1       0.208   0.999   0.081  1.00  0.00    -0.236 NA
ATOM     16  C   UNL     1       5.755  -0.183  -0.467  1.00  0.00    +0.044 C 
ENDBRANCH   1   7
BRANCH   4  17
ATOM     17  N   UNL     1      -6.129  -0.441   0.364  1.00  0.00    -0.399 N 
ATOM     18  H   UNL     1      -6.617   0.429   0.178  1.00  0.00    +0.156 HD
ATOM     19  H   UNL     1      -6.571  -1.235  -0.088  1.00  0.00    +0.156 HD
ENDBRANCH   4  17
TORSDOF 2
