REMARK SMILES CNc1ccc2nc3ccc(N(C)C)cc3[s+]c2c1
REMARK SMILES IDX 3 1 4 2 5 3 6 4 7 5 8 6 9 7 10 8 11 9 15 10 16 11 17 12
REMARK SMILES IDX 18 13 19 14 2 15 1 16 12 18 13 19 14 20
REMARK H PARENT 2 17
ROOT
ATOM      1  C   UNL     1       4.254  -0.358  -0.457  1.00  0.00    +0.040 A 
ATOM      2  C   UNL     1       4.182   0.481   0.654  1.00  0.00    +0.028 A 
ATOM      3  C   UNL     1       2.945   0.916   1.156  1.00  0.00    +0.036 A 
ATOM      4  C   UNL     1       1.740   0.520   0.606  1.00  0.00    +0.129 A 
ATOM      5  N   UNL     1       0.623   1.011   1.177  1.00  0.00    -0.237 NA
ATOM      6  C   UNL     1      -0.617   0.701   0.749  1.00  0.00    +0.129 A 
ATOM      7  C   UNL     1      -1.672   1.281   1.421  1.00  0.00    +0.036 A 
ATOM      8  C   UNL     1      -3.013   1.037   1.076  1.00  0.00    +0.028 A 
ATOM      9  C   UNL     1      -3.371   0.176   0.030  1.00  0.00    +0.042 A 
ATOM     10  C   UNL     1      -2.298  -0.401  -0.664  1.00  0.00    +0.100 A 
ATOM     11  C   UNL     1      -0.953  -0.154  -0.315  1.00  0.00    +0.259 A 
ATOM     12  S   UNL     1       0.319  -0.969  -1.281  1.00  0.00    +0.232 S 
ATOM     13  C   UNL     1       1.808  -0.362  -0.489  1.00  0.00    +0.259 A 
ATOM     14  C   UNL     1       3.044  -0.801  -0.998  1.00  0.00    +0.099 A 
ENDROOT
BRANCH   1  15
ATOM     15  N   UNL     1       5.447  -0.881  -0.960  1.00  0.00    -0.388 N 
ATOM     16  C   UNL     1       6.706  -0.222  -0.662  1.00  0.00    +0.139 C 
ATOM     17  H   UNL     1       5.365  -1.148  -1.939  1.00  0.00    +0.160 HD
ENDBRANCH   1  15
BRANCH   9  18
ATOM     18  N   UNL     1      -4.704  -0.055  -0.324  1.00  0.00    -0.377 N 
ATOM     19  C   UNL     1      -5.764   0.326   0.608  1.00  0.00    +0.143 C 
ATOM     20  C   UNL     1      -5.021  -1.168  -1.219  1.00  0.00    +0.143 C 
ENDBRANCH   9  18
TORSDOF 2
