REMARK SMILES CCN(CC)c1ccc(/C=C/C=C(C#N)C#N)cc1
REMARK SMILES IDX 6 1 7 2 8 3 9 4 18 5 19 6 3 7 2 8 1 9 4 10 5 11 10 12 11 13
REMARK SMILES IDX 12 14 13 15 14 16 16 17 15 18 17 19
REMARK H PARENT
ROOT
ATOM      1  C   UNL     1      -1.492  -0.208  -0.075  1.00  0.00    +0.037 A 
ATOM      2  C   UNL     1      -1.001  -0.206  -1.391  1.00  0.00    +0.026 A 
ATOM      3  C   UNL     1       0.371  -0.257  -1.690  1.00  0.00    +0.010 A 
ATOM      4  C   UNL     1       1.321  -0.302  -0.672  1.00  0.00    -0.026 A 
ATOM      5  C   UNL     1       0.865  -0.324   0.644  1.00  0.00    +0.010 A 
ATOM      6  C   UNL     1      -0.510  -0.273   0.929  1.00  0.00    +0.026 A 
ENDROOT
BRANCH   1   7
ATOM      7  N   UNL     1      -2.851  -0.156   0.215  1.00  0.00    -0.372 N 
BRANCH   7   8
ATOM      8  C   UNL     1      -3.877  -0.223  -0.834  1.00  0.00    +0.113 C 
ATOM      9  C   UNL     1      -4.191   1.162  -1.383  1.00  0.00    +0.027 C 
ENDBRANCH   7   8
BRANCH   7  10
ATOM     10  C   UNL     1      -3.351  -0.012   1.589  1.00  0.00    +0.113 C 
ATOM     11  C   UNL     1      -3.531  -1.371   2.249  1.00  0.00    +0.027 C 
ENDBRANCH   7  10
ENDBRANCH   1   7
BRANCH   4  12
ATOM     12  C   UNL     1       2.746  -0.384  -1.023  1.00  0.00    +0.008 C 
ATOM     13  C   UNL     1       3.725   0.212  -0.324  1.00  0.00    +0.003 C 
BRANCH  13  14
ATOM     14  C   UNL     1       5.123   0.117  -0.706  1.00  0.00    +0.031 C 
ATOM     15  C   UNL     1       6.172   0.672  -0.065  1.00  0.00    +0.129 C 
ATOM     16  C   UNL     1       6.025   1.447   1.120  1.00  0.00    +0.111 C 
ATOM     17  C   UNL     1       7.484   0.478  -0.583  1.00  0.00    +0.111 C 
ATOM     18  N   UNL     1       5.892   2.075   2.087  1.00  0.00    -0.192 NA
ATOM     19  N   UNL     1       8.544   0.307  -1.022  1.00  0.00    -0.192 NA
ENDBRANCH  13  14
ENDBRANCH   4  12
TORSDOF 5
