REMARK SMILES Oc1ccc(/C=C/c2cc(O)cc(O)c2)cc1
REMARK SMILES IDX 6 1 7 2 5 3 2 4 3 5 17 6 4 7 16 8 1 9 8 11 9 12 15 13 10 14
REMARK SMILES IDX 13 15 12 16 11 17 14 19
REMARK H PARENT 1 10 11 18 14 20
ROOT
ATOM      1  C   UNL     1       0.573  -0.255  -0.188  1.00  0.00    +0.009 C 
ATOM      2  C   UNL     1      -0.354   0.289   0.616  1.00  0.00    +0.009 C 
ENDROOT
BRANCH   1   3
ATOM      3  C   UNL     1       2.018  -0.060  -0.011  1.00  0.00    -0.025 A 
ATOM      4  C   UNL     1       4.787   0.246   0.242  1.00  0.00    +0.115 A 
ATOM      5  C   UNL     1       4.210   0.249  -1.023  1.00  0.00    +0.047 A 
ATOM      6  C   UNL     1       4.006   0.084   1.379  1.00  0.00    +0.047 A 
ATOM      7  C   UNL     1       2.827   0.089  -1.147  1.00  0.00    +0.012 A 
ATOM      8  C   UNL     1       2.623  -0.074   1.253  1.00  0.00    +0.012 A 
BRANCH   4   9
ATOM      9  O   UNL     1       6.131   0.398   0.411  1.00  0.00    -0.508 OA
ATOM     10  H   UNL     1       6.542   0.512  -0.461  1.00  0.00    +0.293 HD
ENDBRANCH   4   9
ENDBRANCH   1   3
BRANCH   2  11
ATOM     11  C   UNL     1      -1.801   0.108   0.430  1.00  0.00    -0.018 A 
ATOM     12  C   UNL     1      -2.654   1.196   0.659  1.00  0.00    +0.054 A 
ATOM     13  C   UNL     1      -2.358  -1.132   0.085  1.00  0.00    +0.054 A 
ATOM     14  C   UNL     1      -4.032   1.047   0.517  1.00  0.00    +0.119 A 
ATOM     15  C   UNL     1      -3.740  -1.259  -0.050  1.00  0.00    +0.119 A 
ATOM     16  C   UNL     1      -4.585  -0.176   0.159  1.00  0.00    +0.092 A 
BRANCH  14  17
ATOM     17  O   UNL     1      -4.815   2.141   0.743  1.00  0.00    -0.508 OA
ATOM     18  H   UNL     1      -5.743   1.889   0.606  1.00  0.00    +0.293 HD
ENDBRANCH  14  17
BRANCH  15  19
ATOM     19  O   UNL     1      -4.313  -2.451  -0.388  1.00  0.00    -0.508 OA
ATOM     20  H   UNL     1      -3.611  -3.117  -0.486  1.00  0.00    +0.293 HD
ENDBRANCH  15  19
ENDBRANCH   2  11
TORSDOF 5
