REMARK SMILES Nc1c2c(nc3ccccc13)CCCC2
REMARK SMILES IDX 1 1 2 4 11 5 3 6 10 7 6 8 4 9 15 10 9 11 7 12 5 13 12 14
REMARK SMILES IDX 14 15 8 16 13 17
REMARK H PARENT 1 2 1 3
ROOT
ATOM      1  N   UNL     1      -0.345   2.555  -0.360  1.00  0.00    -0.398 N 
ATOM      2  H   UNL     1      -1.144   3.065   0.003  1.00  0.00    +0.156 HD
ATOM      3  H   UNL     1      -0.282   2.692  -1.368  1.00  0.00    +0.156 HD
ENDROOT
BRANCH   1   4
ATOM      4  C   UNL     1      -0.404   1.167  -0.065  1.00  0.00    +0.046 A 
ATOM      5  C   UNL     1      -1.644   0.477   0.002  1.00  0.00    +0.023 A 
ATOM      6  C   UNL     1       0.801   0.441  -0.048  1.00  0.00    -0.003 A 
ATOM      7  C   UNL     1      -2.915   1.096  -0.110  1.00  0.00    +0.012 A 
ATOM      8  C   UNL     1      -1.593  -0.919   0.195  1.00  0.00    +0.073 A 
ATOM      9  C   UNL     1       0.727  -0.935   0.169  1.00  0.00    +0.046 A 
ATOM     10  C   UNL     1       2.133   1.145  -0.154  1.00  0.00    +0.039 C 
ATOM     11  C   UNL     1      -4.094   0.357  -0.019  1.00  0.00    +0.001 A 
ATOM     12  C   UNL     1      -2.781  -1.633   0.286  1.00  0.00    +0.029 A 
ATOM     13  N   UNL     1      -0.444  -1.602   0.285  1.00  0.00    -0.252 NA
ATOM     14  C   UNL     1       1.964  -1.794   0.226  1.00  0.00    +0.056 C 
ATOM     15  C   UNL     1       3.313   0.206  -0.399  1.00  0.00    +0.005 C 
ATOM     16  C   UNL     1      -4.027  -1.013   0.183  1.00  0.00    +0.002 A 
ATOM     17  C   UNL     1       3.234  -1.004   0.521  1.00  0.00    +0.007 C 
ENDBRANCH   1   4
TORSDOF 1
