REMARK SMILES O=c1cc(-c2ccc(O)cc2)oc2cc(O)cc(O)c12
REMARK SMILES IDX 1 1 2 2 3 3 4 4 12 5 13 6 14 7 15 8 17 9 18 10 20 11 5 12
REMARK SMILES IDX 6 13 11 14 7 15 10 16 8 17 9 18 19 20 16 22
REMARK H PARENT 9 19 19 21 16 23
ROOT
ATOM      1  O   UNL     1       1.819   3.052  -0.662  1.00  0.00    -0.289 OA
ATOM      2  C   UNL     1       1.379   1.928  -0.446  1.00  0.00    +0.197 C 
ATOM      3  C   UNL     1      -0.061   1.684  -0.276  1.00  0.00    +0.100 C 
ATOM      4  C   UNL     1      -0.485   0.436  -0.033  1.00  0.00    +0.138 C 
ATOM      5  O   UNL     1       0.349  -0.669   0.054  1.00  0.00    -0.456 OA
ATOM      6  C   UNL     1       1.702  -0.482  -0.095  1.00  0.00    +0.146 A 
ATOM      7  C   UNL     1       2.511  -1.614   0.012  1.00  0.00    +0.094 A 
ATOM      8  C   UNL     1       3.890  -1.479  -0.132  1.00  0.00    +0.123 A 
ATOM      9  C   UNL     1       4.468  -0.237  -0.380  1.00  0.00    +0.093 A 
ATOM     10  C   UNL     1       3.656   0.888  -0.486  1.00  0.00    +0.134 A 
ATOM     11  C   UNL     1       2.270   0.767  -0.343  1.00  0.00    +0.107 A 
ENDROOT
BRANCH   4  12
ATOM     12  C   UNL     1      -1.917   0.125   0.138  1.00  0.00    +0.018 A 
ATOM     13  C   UNL     1      -2.468  -1.003  -0.488  1.00  0.00    +0.016 A 
ATOM     14  C   UNL     1      -2.750   0.922   0.941  1.00  0.00    +0.016 A 
ATOM     15  C   UNL     1      -3.820  -1.318  -0.329  1.00  0.00    +0.047 A 
ATOM     16  C   UNL     1      -4.103   0.608   1.102  1.00  0.00    +0.047 A 
ATOM     17  C   UNL     1      -4.626  -0.511   0.463  1.00  0.00    +0.115 A 
BRANCH  17  18
ATOM     18  O   UNL     1      -5.938  -0.855   0.591  1.00  0.00    -0.508 OA
ATOM     19  H   UNL     1      -6.377  -0.207   1.167  1.00  0.00    +0.293 HD
ENDBRANCH  17  18
ENDBRANCH   4  12
BRANCH  10  20
ATOM     20  O   UNL     1       4.277   2.083  -0.730  1.00  0.00    -0.507 OA
ATOM     21  H   UNL     1       3.589   2.784  -0.781  1.00  0.00    +0.293 HD
ENDBRANCH  10  20
BRANCH   8  22
ATOM     22  O   UNL     1       4.721  -2.557  -0.035  1.00  0.00    -0.508 OA
ATOM     23  H   UNL     1       4.194  -3.354   0.142  1.00  0.00    +0.293 HD
ENDBRANCH   8  22
TORSDOF 4
