REMARK SMILES O=c1cc(-c2ccc(O)c(O)c2)oc2cc(O)cc(O)c12
REMARK SMILES IDX 1 1 2 2 3 3 4 4 13 5 14 6 15 7 16 8 18 9 19 10 21 11 5 12
REMARK SMILES IDX 6 13 12 14 7 15 10 16 8 17 11 18 9 20 20 22 17 24
REMARK H PARENT 11 19 9 21 20 23 17 25
ROOT
ATOM      1  O   UNL     1       1.751  -3.193  -0.051  1.00  0.00    -0.289 OA
ATOM      2  C   UNL     1       1.397  -2.021   0.004  1.00  0.00    +0.197 C 
ATOM      3  C   UNL     1      -0.021  -1.642  -0.080  1.00  0.00    +0.100 C 
ATOM      4  C   UNL     1      -0.353  -0.346  -0.001  1.00  0.00    +0.138 C 
ATOM      5  O   UNL     1       0.560   0.688   0.138  1.00  0.00    -0.456 OA
ATOM      6  C   UNL     1       1.895   0.375   0.220  1.00  0.00    +0.146 A 
ATOM      7  C   UNL     1       2.785   1.440   0.370  1.00  0.00    +0.094 A 
ATOM      8  C   UNL     1       4.150   1.177   0.458  1.00  0.00    +0.123 A 
ATOM      9  C   UNL     1       4.635  -0.127   0.400  1.00  0.00    +0.093 A 
ATOM     10  C   UNL     1       3.743  -1.185   0.250  1.00  0.00    +0.134 A 
ATOM     11  C   UNL     1       2.371  -0.934   0.160  1.00  0.00    +0.107 A 
ENDROOT
BRANCH   4  12
ATOM     12  C   UNL     1      -1.757   0.099  -0.086  1.00  0.00    +0.021 A 
ATOM     13  C   UNL     1      -2.094   1.188  -0.911  1.00  0.00    +0.016 A 
ATOM     14  C   UNL     1      -2.769  -0.529   0.662  1.00  0.00    +0.062 A 
ATOM     15  C   UNL     1      -3.415   1.636  -1.003  1.00  0.00    +0.051 A 
ATOM     16  C   UNL     1      -4.081  -0.075   0.565  1.00  0.00    +0.158 A 
ATOM     17  C   UNL     1      -4.397   0.998  -0.263  1.00  0.00    +0.157 A 
BRANCH  16  18
ATOM     18  O   UNL     1      -5.100  -0.651   1.272  1.00  0.00    -0.504 OA
ATOM     19  H   UNL     1      -4.734  -1.372   1.812  1.00  0.00    +0.293 HD
ENDBRANCH  16  18
BRANCH  17  20
ATOM     20  O   UNL     1      -5.687   1.435  -0.351  1.00  0.00    -0.504 OA
ATOM     21  H   UNL     1      -6.189   0.847   0.247  1.00  0.00    +0.293 HD
ENDBRANCH  17  20
ENDBRANCH   4  12
BRANCH  10  22
ATOM     22  O   UNL     1       4.275  -2.444   0.199  1.00  0.00    -0.507 OA
ATOM     23  H   UNL     1       3.539  -3.087   0.091  1.00  0.00    +0.293 HD
ENDBRANCH  10  22
BRANCH   8  24
ATOM     24  O   UNL     1       5.057   2.184   0.606  1.00  0.00    -0.508 OA
ATOM     25  H   UNL     1       4.591   3.036   0.634  1.00  0.00    +0.293 HD
ENDBRANCH   8  24
TORSDOF 5
