REMARK SMILES Nc1cc(S(=O)(=O)O)c2ccc(N=Nc3ccc(N)c4ccccc34)cc2c1
REMARK SMILES IDX 12 1 11 2 10 3 9 4 4 5 3 6 2 7 28 8 27 9 26 10 13 11 14 12
REMARK SMILES IDX 15 13 18 14 17 15 20 16 16 17 21 18 25 19 22 20 24 21 23 22
REMARK SMILES IDX 19 23 5 26 6 27 7 28 8 29 1 31
REMARK H PARENT 19 24 19 25 8 30 1 32 1 33
ROOT
ATOM      1  C   UNL     1      -0.166  -2.110   1.156  1.00  0.00    +0.086 A 
ATOM      2  C   UNL     1      -0.485  -2.806  -0.007  1.00  0.00    +0.031 A 
ATOM      3  C   UNL     1      -1.405  -2.281  -0.920  1.00  0.00    +0.012 A 
ATOM      4  C   UNL     1      -2.056  -1.042  -0.690  1.00  0.00    +0.003 A 
ATOM      5  C   UNL     1      -3.005  -0.437  -1.554  1.00  0.00    +0.104 A 
ATOM      6  C   UNL     1      -3.590   0.803  -1.256  1.00  0.00    +0.049 A 
ATOM      7  C   UNL     1      -3.227   1.494  -0.105  1.00  0.00    +0.033 A 
ATOM      8  C   UNL     1      -2.350   0.881   0.790  1.00  0.00    +0.034 A 
ATOM      9  C   UNL     1      -1.743  -0.355   0.507  1.00  0.00    -0.013 A 
ATOM     10  C   UNL     1      -0.825  -0.906   1.417  1.00  0.00    +0.039 A 
ENDROOT
BRANCH   1  11
ATOM     11  N   UNL     1       0.750  -2.651   2.079  1.00  0.00    -0.151 NA
ATOM     12  N   UNL     1       1.961  -2.298   2.061  1.00  0.00    -0.150 NA
BRANCH  12  13
ATOM     13  C   UNL     1       2.423  -1.369   1.099  1.00  0.00    +0.094 A 
ATOM     14  C   UNL     1       3.311   0.411  -0.897  1.00  0.00    +0.039 A 
ATOM     15  C   UNL     1       3.261  -0.966  -1.139  1.00  0.00    +0.028 A 
ATOM     16  C   UNL     1       3.039   0.904   0.410  1.00  0.00    +0.007 A 
ATOM     17  C   UNL     1       2.813  -1.844  -0.158  1.00  0.00    +0.033 A 
ATOM     18  C   UNL     1       3.207   2.264   0.768  1.00  0.00    +0.011 A 
ATOM     19  C   UNL     1       2.581   0.005   1.412  1.00  0.00    +0.011 A 
ATOM     20  C   UNL     1       2.922   2.733   2.052  1.00  0.00    +0.001 A 
ATOM     21  C   UNL     1       2.304   0.506   2.705  1.00  0.00    +0.011 A 
ATOM     22  C   UNL     1       2.468   1.853   3.021  1.00  0.00    +0.001 A 
BRANCH  14  23
ATOM     23  N   UNL     1       3.836   1.234  -1.917  1.00  0.00    -0.398 N 
ATOM     24  H   UNL     1       3.723   0.840  -2.847  1.00  0.00    +0.156 HD
ATOM     25  H   UNL     1       3.490   2.186  -1.881  1.00  0.00    +0.156 HD
ENDBRANCH  14  23
ENDBRANCH  12  13
ENDBRANCH   1  11
BRANCH   5  26
ATOM     26  S   UNL     1      -3.505  -1.247  -3.049  1.00  0.00    +0.295 S 
ATOM     27  O   UNL     1      -4.086  -2.525  -2.698  1.00  0.00    -0.194 OA
ATOM     28  O   UNL     1      -2.419  -1.132  -3.997  1.00  0.00    -0.194 OA
BRANCH  26  29
ATOM     29  O   UNL     1      -4.743  -0.392  -3.633  1.00  0.00    -0.282 OA
ATOM     30  H   UNL     1      -5.481  -1.021  -3.784  1.00  0.00    +0.234 HD
ENDBRANCH  26  29
ENDBRANCH   5  26
BRANCH   7  31
ATOM     31  N   UNL     1      -3.897   2.668   0.253  1.00  0.00    -0.399 N 
ATOM     32  H   UNL     1      -4.252   3.205  -0.533  1.00  0.00    +0.156 HD
ATOM     33  H   UNL     1      -3.390   3.250   0.913  1.00  0.00    +0.156 HD
ENDBRANCH   7  31
TORSDOF 6
