REMARK SMILES O=c1c(O)c(-c2ccc(O)c(O)c2)oc2ccc(O)cc12
REMARK SMILES IDX 1 1 2 2 3 3 5 4 14 5 15 6 16 7 17 8 18 9 20 10 21 11 4 12
REMARK SMILES IDX 6 14 7 15 13 16 8 17 11 18 9 19 12 20 10 22 19 24
REMARK H PARENT 4 13 12 21 10 23 19 25
ROOT
ATOM      1  O   UNL     1       2.117  -2.971   0.392  1.00  0.00    -0.285 OA
ATOM      2  C   UNL     1       1.680  -1.830   0.276  1.00  0.00    +0.235 C 
ATOM      3  C   UNL     1       0.217  -1.591   0.288  1.00  0.00    +0.208 C 
ATOM      4  C   UNL     1      -0.233  -0.329   0.165  1.00  0.00    +0.180 C 
ATOM      5  O   UNL     1       0.592   0.782   0.040  1.00  0.00    -0.452 OA
ATOM      6  C   UNL     1       1.950   0.596   0.011  1.00  0.00    +0.139 A 
ATOM      7  C   UNL     1       2.746   1.732  -0.134  1.00  0.00    +0.052 A 
ATOM      8  C   UNL     1       4.136   1.603  -0.167  1.00  0.00    +0.050 A 
ATOM      9  C   UNL     1       4.719   0.343  -0.054  1.00  0.00    +0.116 A 
ATOM     10  C   UNL     1       3.937  -0.797   0.091  1.00  0.00    +0.062 A 
ATOM     11  C   UNL     1       2.546  -0.657   0.122  1.00  0.00    +0.072 A 
ENDROOT
BRANCH   3  12
ATOM     12  O   UNL     1      -0.598  -2.697   0.446  1.00  0.00    -0.502 OA
ATOM     13  H   UNL     1       0.015  -3.459   0.516  1.00  0.00    +0.293 HD
ENDBRANCH   3  12
BRANCH   4  14
ATOM     14  C   UNL     1      -1.669   0.019   0.172  1.00  0.00    +0.025 A 
ATOM     15  C   UNL     1      -2.131   1.055   1.007  1.00  0.00    +0.016 A 
ATOM     16  C   UNL     1      -2.585  -0.632  -0.668  1.00  0.00    +0.062 A 
ATOM     17  C   UNL     1      -3.481   1.426   1.019  1.00  0.00    +0.051 A 
ATOM     18  C   UNL     1      -3.922  -0.256  -0.652  1.00  0.00    +0.158 A 
ATOM     19  C   UNL     1      -4.370   0.763   0.184  1.00  0.00    +0.157 A 
BRANCH  18  20
ATOM     20  O   UNL     1      -4.804  -0.896  -1.476  1.00  0.00    -0.504 OA
ATOM     21  H   UNL     1      -5.665  -0.475  -1.286  1.00  0.00    +0.293 HD
ENDBRANCH  18  20
BRANCH  19  22
ATOM     22  O   UNL     1      -5.700   1.079   0.147  1.00  0.00    -0.504 OA
ATOM     23  H   UNL     1      -5.859   1.793   0.787  1.00  0.00    +0.293 HD
ENDBRANCH  19  22
ENDBRANCH   4  14
BRANCH   9  24
ATOM     24  O   UNL     1       6.080   0.271  -0.092  1.00  0.00    -0.508 OA
ATOM     25  H   UNL     1       6.351  -0.660  -0.011  1.00  0.00    +0.293 HD
ENDBRANCH   9  24
TORSDOF 5
