REMARK SMILES Brc1ccc(-n2nc(-c3ccccc3)cc2Br)cc1
REMARK SMILES IDX 5 1 4 2 3 3 2 4 19 5 18 6 1 7 6 8 16 9 15 10 8 11 7 12 17 13
REMARK SMILES IDX 9 14 10 15 14 16 11 17 13 18 12 19
REMARK H PARENT
ROOT
ATOM      1  C   UNL     1      -2.389  -0.100   0.044  1.00  0.00    +0.066 A 
ATOM      2  C   UNL     1      -3.558  -0.866   0.103  1.00  0.00    +0.029 A 
ATOM      3  C   UNL     1      -4.766  -0.288   0.517  1.00  0.00    +0.018 A 
ATOM      4  C   UNL     1      -4.812   1.054   0.882  1.00  0.00    +0.018 A 
ATOM      5  C   UNL     1      -3.657   1.828   0.847  1.00  0.00    +0.018 A 
ATOM      6  C   UNL     1      -2.451   1.253   0.435  1.00  0.00    +0.029 A 
ATOM      7 Br   UNL     1      -6.445   1.824   1.440  1.00  0.00    -0.051 Br
ENDROOT
BRANCH   1   8
ATOM      8  N   UNL     1      -1.128  -0.635  -0.370  1.00  0.00    -0.226 N 
ATOM      9  C   UNL     1      -0.801  -1.823  -0.999  1.00  0.00    +0.110 A 
ATOM     10  C   UNL     1       0.570  -1.864  -1.090  1.00  0.00    +0.067 A 
ATOM     11  C   UNL     1       1.032  -0.646  -0.543  1.00  0.00    +0.094 A 
ATOM     12  N   UNL     1      -0.004   0.102  -0.141  1.00  0.00    -0.167 NA
ATOM     13 Br   UNL     1      -1.878  -3.202  -1.756  1.00  0.00    -0.029 Br
BRANCH  11  14
ATOM     14  C   UNL     1       2.417  -0.172  -0.409  1.00  0.00    +0.002 A 
ATOM     15  C   UNL     1       3.501  -0.946  -0.852  1.00  0.00    +0.010 A 
ATOM     16  C   UNL     1       2.688   1.077   0.173  1.00  0.00    +0.010 A 
ATOM     17  C   UNL     1       4.814  -0.483  -0.717  1.00  0.00    +0.001 A 
ATOM     18  C   UNL     1       4.000   1.540   0.307  1.00  0.00    +0.001 A 
ATOM     19  C   UNL     1       5.063   0.759  -0.138  1.00  0.00    +0.000 A 
ENDBRANCH  11  14
ENDBRANCH   1   8
TORSDOF 2
