REMARK SMILES O=c1cc(-c2ccccc2)oc2cc(O)c(O)c(O)c12
REMARK SMILES IDX 1 1 2 2 3 3 4 4 11 5 12 6 13 7 14 8 16 9 18 10 20 11 5 12
REMARK SMILES IDX 6 13 10 14 7 15 9 16 8 17 19 18 17 20 15 22
REMARK H PARENT 19 19 17 21 15 23
ROOT
ATOM      1  O   UNL     1       1.316  -2.293   2.009  1.00  0.00    -0.289 OA
ATOM      2  C   UNL     1       0.882  -1.433   1.251  1.00  0.00    +0.197 C 
ATOM      3  C   UNL     1      -0.558  -1.198   1.085  1.00  0.00    +0.100 C 
ATOM      4  C   UNL     1      -0.968  -0.247   0.234  1.00  0.00    +0.138 C 
ATOM      5  O   UNL     1      -0.115   0.560  -0.505  1.00  0.00    -0.456 OA
ATOM      6  C   UNL     1       1.239   0.371  -0.380  1.00  0.00    +0.146 A 
ATOM      7  C   UNL     1       2.068   1.196  -1.146  1.00  0.00    +0.098 A 
ATOM      8  C   UNL     1       3.445   1.043  -1.052  1.00  0.00    +0.165 A 
ATOM      9  C   UNL     1       3.997   0.084  -0.209  1.00  0.00    +0.201 A 
ATOM     10  C   UNL     1       3.178  -0.739   0.555  1.00  0.00    +0.176 A 
ATOM     11  C   UNL     1       1.791  -0.592   0.467  1.00  0.00    +0.111 A 
ENDROOT
BRANCH   4  12
ATOM     12  C   UNL     1      -2.401   0.045   0.031  1.00  0.00    +0.017 A 
ATOM     13  C   UNL     1      -3.347  -0.982  -0.113  1.00  0.00    +0.012 A 
ATOM     14  C   UNL     1      -2.841   1.375  -0.048  1.00  0.00    +0.012 A 
ATOM     15  C   UNL     1      -4.698  -0.685  -0.314  1.00  0.00    +0.001 A 
ATOM     16  C   UNL     1      -4.191   1.672  -0.248  1.00  0.00    +0.001 A 
ATOM     17  C   UNL     1      -5.119   0.641  -0.379  1.00  0.00    +0.000 A 
ENDBRANCH   4  12
BRANCH  10  18
ATOM     18  O   UNL     1       3.797  -1.660   1.362  1.00  0.00    -0.504 OA
ATOM     19  H   UNL     1       3.092  -2.162   1.836  1.00  0.00    +0.293 HD
ENDBRANCH  10  18
BRANCH   9  20
ATOM     20  O   UNL     1       5.359  -0.037  -0.143  1.00  0.00    -0.502 OA
ATOM     21  H   UNL     1       5.508  -0.761   0.501  1.00  0.00    +0.293 HD
ENDBRANCH   9  20
BRANCH   8  22
ATOM     22  O   UNL     1       4.259   1.845  -1.796  1.00  0.00    -0.504 OA
ATOM     23  H   UNL     1       5.169   1.560  -1.571  1.00  0.00    +0.293 HD
ENDBRANCH   8  22
TORSDOF 4
