REMARK SMILES COc1cc2c(cc1OC)C(=O)C(CC1CCN(Cc3ccccc3)CC1)C2
REMARK SMILES IDX 14 1 13 2 3 3 4 4 8 5 5 6 7 7 6 8 28 9 11 10 12 11 2 12 1 13
REMARK SMILES IDX 9 14 10 15 15 16 16 17 27 18 17 19 26 20 18 21 19 22 20 23
REMARK SMILES IDX 21 24 25 25 22 26 24 27 23 28
REMARK H PARENT
ROOT
ATOM      1  C   UNL     1       0.335  -1.544  -0.613  1.00  0.00    +0.016 C 
ENDROOT
BRANCH   1   2
ATOM      2  C   UNL     1       1.497  -1.102   0.289  1.00  0.00    +0.066 C 
ATOM      3  C   UNL     1       6.154  -0.226  -0.186  1.00  0.00    +0.161 A 
ATOM      4  C   UNL     1       5.249  -1.292  -0.054  1.00  0.00    +0.055 A 
ATOM      5  C   UNL     1       5.681   1.113  -0.275  1.00  0.00    +0.161 A 
ATOM      6  C   UNL     1       3.892  -1.013  -0.003  1.00  0.00    -0.033 A 
ATOM      7  C   UNL     1       4.309   1.375  -0.228  1.00  0.00    +0.062 A 
ATOM      8  C   UNL     1       3.453   0.298  -0.091  1.00  0.00    +0.025 A 
ATOM      9  C   UNL     1       2.759  -1.984   0.088  1.00  0.00    +0.048 C 
ATOM     10  C   UNL     1       2.000   0.305  -0.004  1.00  0.00    +0.166 C 
ATOM     11  O   UNL     1       1.338   1.321  -0.116  1.00  0.00    -0.294 OA
BRANCH   3  12
ATOM     12  O   UNL     1       7.519  -0.379  -0.245  1.00  0.00    -0.493 OA
ATOM     13  C   UNL     1       8.043  -1.695  -0.141  1.00  0.00    +0.278 C 
ENDBRANCH   3  12
BRANCH   5  14
ATOM     14  O   UNL     1       6.647   2.081  -0.406  1.00  0.00    -0.493 OA
ATOM     15  C   UNL     1       6.214   3.431  -0.513  1.00  0.00    +0.278 C 
ENDBRANCH   5  14
ENDBRANCH   1   2
BRANCH   1  16
ATOM     16  C   UNL     1      -1.059  -1.402   0.040  1.00  0.00    -0.008 C 
ATOM     17  C   UNL     1      -2.145  -2.105  -0.803  1.00  0.00    +0.019 C 
ATOM     18  C   UNL     1      -1.443   0.060   0.315  1.00  0.00    +0.019 C 
ATOM     19  C   UNL     1      -2.998  -1.112  -1.591  1.00  0.00    +0.085 C 
ATOM     20  C   UNL     1      -2.956   0.203   0.486  1.00  0.00    +0.085 C 
ATOM     21  N   UNL     1      -3.693  -0.133  -0.745  1.00  0.00    -0.299 NA
BRANCH  21  22
ATOM     22  C   UNL     1      -5.079  -0.537  -0.460  1.00  0.00    +0.120 C 
BRANCH  22  23
ATOM     23  C   UNL     1      -5.912   0.551   0.186  1.00  0.00    -0.034 A 
ATOM     24  C   UNL     1      -6.088   1.787  -0.455  1.00  0.00    +0.005 A 
ATOM     25  C   UNL     1      -6.536   0.336   1.423  1.00  0.00    +0.005 A 
ATOM     26  C   UNL     1      -6.865   2.787   0.131  1.00  0.00    +0.000 A 
ATOM     27  C   UNL     1      -7.315   1.337   2.007  1.00  0.00    +0.000 A 
ATOM     28  C   UNL     1      -7.479   2.561   1.361  1.00  0.00    +0.000 A 
ENDBRANCH  22  23
ENDBRANCH  21  22
ENDBRANCH   1  16
TORSDOF 6
