REMARK SMILES O=C(Oc1cc(O)c(O)c(O)c1)[C@@H]1Oc2cc(O)cc(O)c2[C@@H](O)[C@H]1c1cc(O)c(O)c(O)c1
REMARK SMILES IDX 1 1 2 2 3 3 4 4 5 5 12 6 6 7 10 8 8 9 7 10 11 12 9 14 13 16
REMARK SMILES IDX 14 17 25 18 15 19 23 20 16 21 22 22 17 23 20 24 19 25 26 26
REMARK SMILES IDX 27 27 34 28 28 29 32 30 30 31 29 32 33 34 31 36 24 38 18 40
REMARK SMILES IDX 21 42
REMARK H PARENT 7 11 11 13 9 15 29 33 33 35 31 37 24 39 18 41 21 43
ROOT
ATOM      1  O   UNL     1       2.077  -1.246   0.016  1.00  0.00    -0.247 OA
ATOM      2  C   UNL     1       1.547  -0.355  -0.638  1.00  0.00    +0.353 C 
ENDROOT
BRANCH   2   3
ATOM      3  O   UNL     1       2.185   0.773  -1.149  1.00  0.00    -0.423 OA
BRANCH   3   4
ATOM      4  C   UNL     1       3.520   0.872  -0.754  1.00  0.00    +0.138 A 
ATOM      5  C   UNL     1       4.514   0.326  -1.570  1.00  0.00    +0.097 A 
ATOM      6  C   UNL     1       3.828   1.584   0.407  1.00  0.00    +0.097 A 
ATOM      7  C   UNL     1       5.840   0.475  -1.188  1.00  0.00    +0.165 A 
ATOM      8  C   UNL     1       5.160   1.702   0.776  1.00  0.00    +0.165 A 
ATOM      9  C   UNL     1       6.163   1.135  -0.005  1.00  0.00    +0.200 A 
BRANCH   7  10
ATOM     10  O   UNL     1       6.822  -0.007  -2.004  1.00  0.00    -0.504 OA
ATOM     11  H   UNL     1       7.517   0.676  -2.030  1.00  0.00    +0.293 HD
ENDBRANCH   7  10
BRANCH   8  12
ATOM     12  O   UNL     1       5.480   2.371   1.922  1.00  0.00    -0.504 OA
ATOM     13  H   UNL     1       6.455   2.332   1.975  1.00  0.00    +0.293 HD
ENDBRANCH   8  12
BRANCH   9  14
ATOM     14  O   UNL     1       7.459   1.213   0.428  1.00  0.00    -0.502 OA
ATOM     15  H   UNL     1       7.888   0.392   0.120  1.00  0.00    +0.293 HD
ENDBRANCH   9  14
ENDBRANCH   3   4
ENDBRANCH   2   3
BRANCH   2  16
ATOM     16  C   UNL     1       0.073  -0.345  -1.065  1.00  0.00    +0.293 C 
ATOM     17  O   UNL     1      -0.451   0.986  -1.040  1.00  0.00    -0.477 OA
ATOM     18  C   UNL     1      -0.761  -1.365  -0.264  1.00  0.00    +0.106 C 
ATOM     19  C   UNL     1      -1.037   1.422   0.115  1.00  0.00    +0.133 A 
ATOM     20  C   UNL     1      -0.893  -0.842   1.183  1.00  0.00    +0.164 C 
ATOM     21  C   UNL     1      -1.380   2.776   0.123  1.00  0.00    +0.093 A 
ATOM     22  C   UNL     1      -1.315   0.607   1.218  1.00  0.00    +0.065 A 
ATOM     23  C   UNL     1      -1.983   3.333   1.242  1.00  0.00    +0.122 A 
ATOM     24  C   UNL     1      -1.906   1.204   2.343  1.00  0.00    +0.128 A 
ATOM     25  C   UNL     1      -2.249   2.557   2.363  1.00  0.00    +0.093 A 
BRANCH  18  26
ATOM     26  C   UNL     1      -2.098  -1.762  -0.914  1.00  0.00    -0.030 A 
ATOM     27  C   UNL     1      -2.779  -0.962  -1.850  1.00  0.00    +0.054 A 
ATOM     28  C   UNL     1      -2.669  -3.005  -0.558  1.00  0.00    +0.054 A 
ATOM     29  C   UNL     1      -3.979  -1.399  -2.405  1.00  0.00    +0.161 A 
ATOM     30  C   UNL     1      -3.875  -3.421  -1.116  1.00  0.00    +0.161 A 
ATOM     31  C   UNL     1      -4.525  -2.620  -2.042  1.00  0.00    +0.200 A 
BRANCH  29  32
ATOM     32  O   UNL     1      -4.621  -0.610  -3.317  1.00  0.00    -0.504 OA
ATOM     33  H   UNL     1      -5.427  -1.114  -3.549  1.00  0.00    +0.293 HD
ENDBRANCH  29  32
BRANCH  30  34
ATOM     34  O   UNL     1      -4.456  -4.611  -0.779  1.00  0.00    -0.504 OA
ATOM     35  H   UNL     1      -3.917  -5.014  -0.075  1.00  0.00    +0.293 HD
ENDBRANCH  30  34
BRANCH  31  36
ATOM     36  O   UNL     1      -5.708  -3.019  -2.602  1.00  0.00    -0.502 OA
ATOM     37  H   UNL     1      -5.880  -3.891  -2.190  1.00  0.00    +0.293 HD
ENDBRANCH  31  36
ENDBRANCH  18  26
BRANCH  20  38
ATOM     38  O   UNL     1      -1.703  -1.724   1.963  1.00  0.00    -0.387 OA
ATOM     39  H   UNL     1      -2.058  -1.186   2.698  1.00  0.00    +0.211 HD
ENDBRANCH  20  38
BRANCH  23  40
ATOM     40  O   UNL     1      -2.295   4.659   1.201  1.00  0.00    -0.508 OA
ATOM     41  H   UNL     1      -2.742   4.911   2.025  1.00  0.00    +0.293 HD
ENDBRANCH  23  40
BRANCH  24  42
ATOM     42  O   UNL     1      -2.149   0.429   3.447  1.00  0.00    -0.507 OA
ATOM     43  H   UNL     1      -2.517   0.991   4.153  1.00  0.00    +0.293 HD
ENDBRANCH  24  42
ENDBRANCH   2  16
TORSDOF 13
